# vtk DataFile Version 3.0
Example VTK
ASCII
DATASET UNSTRUCTURED_GRID
POINTS  6313 float
  0.333066900000E-15  0.000000000000E+00  0.500000000000E+01
  0.975451600000E+00  0.000000000000E+00  0.490392600000E+01
  0.277555800000E-15 -0.187500000000E+01  0.491132300000E+01
  0.893645900000E+00 -0.187500000000E+01  0.482933600000E+01
  0.191341700000E+01  0.000000000000E+00  0.461939800000E+01
  0.175745600000E+01 -0.187500000000E+01  0.458611400000E+01
  0.277785100000E+01  0.000000000000E+00  0.415734800000E+01
  0.256259000000E+01 -0.187500000000E+01  0.418977600000E+01
  0.353553400000E+01  0.000000000000E+00  0.353553400000E+01
  0.328216800000E+01 -0.187500000000E+01  0.365355500000E+01
  0.277555800000E-15 -0.375000000000E+01  0.463512400000E+01
  0.811354800000E+00 -0.375000000000E+01  0.456356000000E+01
  0.159765600000E+01 -0.375000000000E+01  0.435107700000E+01
  0.233462200000E+01 -0.375000000000E+01  0.400423700000E+01
  0.299949800000E+01 -0.375000000000E+01  0.353375000000E+01
  0.277555800000E-15 -0.562500000000E+01  0.413398600000E+01
  0.728634400000E+00 -0.562500000000E+01  0.406926700000E+01
  0.143445500000E+01 -0.562500000000E+01  0.387713600000E+01
  0.209536100000E+01 -0.562500000000E+01  0.356360900000E+01
  0.269066000000E+01 -0.562500000000E+01  0.313850200000E+01
  0.943689600000E-15 -0.750000000000E+01  0.330718900000E+01
  0.645200600000E+00 -0.750000000000E+01  0.324364200000E+01
  0.126560600000E+01 -0.750000000000E+01  0.305544400000E+01
  0.183737600000E+01 -0.750000000000E+01  0.274982700000E+01
  0.233853600000E+01 -0.750000000000E+01  0.233853600000E+01
  0.415734800000E+01  0.000000000000E+00  0.277785100000E+01
  0.395862600000E+01 -0.197463400000E+01  0.289041300000E+01
  0.461939800000E+01  0.000000000000E+00  0.191341700000E+01
  0.446313500000E+01 -0.207426800000E+01  0.200119500000E+01
  0.490392600000E+01  0.000000000000E+00  0.975451600000E+00
  0.477187100000E+01 -0.217390200000E+01  0.102361500000E+01
  0.500000000000E+01  0.000000000000E+00  0.000000000000E+00
  0.486906100000E+01 -0.227353600000E+01 -0.266376500000E-07
  0.363845200000E+01 -0.394093700000E+01  0.280694100000E+01
  0.411378600000E+01 -0.413187400000E+01  0.195158200000E+01
  0.439595200000E+01 -0.432281100000E+01  0.100196500000E+01
  0.446167200000E+01 -0.451374700000E+01 -0.704096100000E-08
  0.318047600000E+01 -0.588562200000E+01  0.249488200000E+01
  0.353879100000E+01 -0.614624300000E+01  0.174151800000E+01
  0.373218700000E+01 -0.640686500000E+01  0.899333800000E+00
  0.372641300000E+01 -0.666748600000E+01 -0.590879200000E-07
  0.253419200000E+01 -0.777685500000E+01  0.185957100000E+01
  0.265820300000E+01 -0.805371000000E+01  0.131087500000E+01
  0.267861800000E+01 -0.833056500000E+01  0.689512000000E+00
  0.254520700000E+01 -0.860742000000E+01 -0.888178400000E-15
  0.832667300000E-15 -0.812500000000E+01  0.291480600000E+01
  0.767909900000E+00 -0.809759400000E+01  0.283152900000E+01
  0.146581000000E+01 -0.802186600000E+01  0.260073400000E+01
  0.205675900000E+01 -0.791106600000E+01  0.226351500000E+01
  0.666133800000E-15 -0.875000000000E+01  0.242061500000E+01
  0.884463100000E+00 -0.869518800000E+01  0.230567800000E+01
  0.163287300000E+01 -0.854373200000E+01  0.202111000000E+01
  0.221348700000E+01 -0.832213200000E+01  0.166913400000E+01
  0.499600400000E-15 -0.937500000000E+01  0.173992600000E+01
  0.979256300000E+00 -0.929278200000E+01  0.156592000000E+01
  0.171327600000E+01 -0.906559800000E+01  0.123224000000E+01
  0.225096800000E+01 -0.873319800000E+01  0.930566900000E+00
  0.000000000000E+00 -0.100000000000E+02  0.000000000000E+00
  0.738317600000E+00 -0.989037700000E+01  0.142882900000E-05
  0.142131300000E+01 -0.958746500000E+01  0.124550900000E-06
  0.202376100000E+01 -0.914426400000E+01 -0.239416700000E-07
 -0.975451600000E+00  0.000000000000E+00  0.490392600000E+01
 -0.893645900000E+00 -0.187500000000E+01  0.482933600000E+01
 -0.191341700000E+01  0.000000000000E+00  0.461939800000E+01
 -0.175745600000E+01 -0.187500000000E+01  0.458611400000E+01
 -0.277785100000E+01  0.000000000000E+00  0.415734800000E+01
 -0.256259000000E+01 -0.187500000000E+01  0.418977600000E+01
 -0.353553400000E+01  0.000000000000E+00  0.353553400000E+01
 -0.328216800000E+01 -0.187500000000E+01  0.365355500000E+01
 -0.811354800000E+00 -0.375000000000E+01  0.456356000000E+01
 -0.159765600000E+01 -0.375000000000E+01  0.435107700000E+01
 -0.233462200000E+01 -0.375000000000E+01  0.400423700000E+01
 -0.299949800000E+01 -0.375000000000E+01  0.353375000000E+01
 -0.728634400000E+00 -0.562500000000E+01  0.406926700000E+01
 -0.143445500000E+01 -0.562500000000E+01  0.387713600000E+01
 -0.209536100000E+01 -0.562500000000E+01  0.356360900000E+01
 -0.269066000000E+01 -0.562500000000E+01  0.313850200000E+01
 -0.645200600000E+00 -0.750000000000E+01  0.324364200000E+01
 -0.126560600000E+01 -0.750000000000E+01  0.305544400000E+01
 -0.183737600000E+01 -0.750000000000E+01  0.274982700000E+01
 -0.233853600000E+01 -0.750000000000E+01  0.233853600000E+01
 -0.415734800000E+01  0.000000000000E+00  0.277785100000E+01
 -0.395862600000E+01 -0.197463400000E+01  0.289041300000E+01
 -0.461939800000E+01  0.000000000000E+00  0.191341700000E+01
 -0.446313500000E+01 -0.207426800000E+01  0.200119500000E+01
 -0.490392600000E+01  0.000000000000E+00  0.975451600000E+00
 -0.477187100000E+01 -0.217390200000E+01  0.102361500000E+01
 -0.500000000000E+01  0.000000000000E+00  0.000000000000E+00
 -0.486906100000E+01 -0.227353600000E+01 -0.266376500000E-07
 -0.363845200000E+01 -0.394093700000E+01  0.280694100000E+01
 -0.411378600000E+01 -0.413187400000E+01  0.195158200000E+01
 -0.439595200000E+01 -0.432281100000E+01  0.100196500000E+01
 -0.446167200000E+01 -0.451374700000E+01 -0.704096100000E-08
 -0.318047600000E+01 -0.588562200000E+01  0.249488200000E+01
 -0.353879100000E+01 -0.614624300000E+01  0.174151800000E+01
 -0.373218700000E+01 -0.640686500000E+01  0.899333800000E+00
 -0.372641300000E+01 -0.666748600000E+01 -0.590879200000E-07
 -0.253419200000E+01 -0.777685500000E+01  0.185957100000E+01
 -0.265820300000E+01 -0.805371000000E+01  0.131087500000E+01
 -0.267861800000E+01 -0.833056500000E+01  0.689512000000E+00
 -0.254520700000E+01 -0.860742000000E+01 -0.888178400000E-15
 -0.767909900000E+00 -0.809759400000E+01  0.283152900000E+01
 -0.146581000000E+01 -0.802186600000E+01  0.260073400000E+01
 -0.205675900000E+01 -0.791106600000E+01  0.226351500000E+01
 -0.884463100000E+00 -0.869518800000E+01  0.230567800000E+01
 -0.163287300000E+01 -0.854373200000E+01  0.202111000000E+01
 -0.221348700000E+01 -0.832213200000E+01  0.166913400000E+01
 -0.979256300000E+00 -0.929278200000E+01  0.156592000000E+01
 -0.171327600000E+01 -0.906559800000E+01  0.123224000000E+01
 -0.225096800000E+01 -0.873319800000E+01  0.930566900000E+00
 -0.738317600000E+00 -0.989037700000E+01  0.142882900000E-05
 -0.142131300000E+01 -0.958746500000E+01  0.124550900000E-06
 -0.202376100000E+01 -0.914426400000E+01 -0.239416700000E-07
  0.277555800000E-15  0.000000000000E+00  0.450000000000E+01
  0.877906400000E+00  0.000000000000E+00  0.441353400000E+01
  0.277555800000E-15 -0.181875000000E+01  0.442019100000E+01
  0.804281400000E+00 -0.181875000000E+01  0.434640300000E+01
  0.172207500000E+01  0.000000000000E+00  0.415745800000E+01
  0.158171000000E+01 -0.181875000000E+01  0.412750300000E+01
  0.250006600000E+01  0.000000000000E+00  0.374161300000E+01
  0.230633100000E+01 -0.181875000000E+01  0.377079900000E+01
  0.318198100000E+01  0.000000000000E+00  0.318198100000E+01
  0.295395100000E+01 -0.181875000000E+01  0.328820000000E+01
  0.277555800000E-15 -0.363750000000E+01  0.417161200000E+01
  0.730219300000E+00 -0.363750000000E+01  0.410720400000E+01
  0.143789000000E+01 -0.363750000000E+01  0.391596900000E+01
  0.210116000000E+01 -0.363750000000E+01  0.360381300000E+01
  0.269954800000E+01 -0.363750000000E+01  0.318037500000E+01
  0.222044600000E-15 -0.545625000000E+01  0.372058800000E+01
  0.655771000000E+00 -0.545625000000E+01  0.366234000000E+01
  0.129100900000E+01 -0.545625000000E+01  0.348942200000E+01
  0.188582500000E+01 -0.545625000000E+01  0.320724800000E+01
  0.242159400000E+01 -0.545625000000E+01  0.282465200000E+01
  0.832667300000E-15 -0.727500000000E+01  0.297647000000E+01
  0.580680500000E+00 -0.727500000000E+01  0.291927800000E+01
  0.113904600000E+01 -0.727500000000E+01  0.274990000000E+01
  0.165363800000E+01 -0.727500000000E+01  0.247484500000E+01
  0.210468200000E+01 -0.727500000000E+01  0.210468200000E+01
  0.374161300000E+01  0.000000000000E+00  0.250006600000E+01
  0.356276300000E+01 -0.191539500000E+01  0.260137200000E+01
  0.415745800000E+01  0.000000000000E+00  0.172207500000E+01
  0.401682100000E+01 -0.201204000000E+01  0.180107600000E+01
  0.441353400000E+01  0.000000000000E+00  0.877906400000E+00
  0.429468400000E+01 -0.210868500000E+01  0.921253200000E+00
  0.450000000000E+01  0.000000000000E+00  0.000000000000E+00
  0.438215500000E+01 -0.220533000000E+01 -0.239738900000E-07
  0.327460700000E+01 -0.382270900000E+01  0.252624700000E+01
  0.370240700000E+01 -0.400791700000E+01  0.175642400000E+01
  0.395635700000E+01 -0.419312600000E+01  0.901768100000E+00
  0.401550500000E+01 -0.437833500000E+01 -0.633686500000E-08
  0.286242800000E+01 -0.570905300000E+01  0.224539400000E+01
  0.318491200000E+01 -0.596185600000E+01  0.156736600000E+01
  0.335896800000E+01 -0.621465900000E+01  0.809400400000E+00
  0.335377200000E+01 -0.646746200000E+01 -0.531791300000E-07
  0.228077200000E+01 -0.754354900000E+01  0.167361400000E+01
  0.239238300000E+01 -0.781209900000E+01  0.117978800000E+01
  0.241075600000E+01 -0.808064800000E+01  0.620560800000E+00
  0.229068600000E+01 -0.834919800000E+01 -0.777156100000E-15
  0.721645000000E-15 -0.788125000000E+01  0.262332500000E+01
[...]
POINT_DATA      6313
SCALARS ElPotential float
LOOKUP_TABLE default
     0.89229428
     0.90719695
     0.89844518
     0.89432951
     0.89143584
     0.89436138
     0.89246746
     0.89581321
     0.89331874
     0.89495391
     0.89901902
     0.89372638
     0.89535474
     0.89731385
     0.89583362
     0.90007684
     0.89544735
     0.89842019
     0.89679879
     0.89697623
     0.90111772
     0.89858256
     0.90002818
     0.90031018
     0.90130794
     0.89189509
     0.89646038
     0.89189096
     0.89339297
     0.89187403
     0.89480207
     0.89129946
     0.89483785
     0.89564336
     0.89422890
     0.89750033
     0.89302479
     0.89728215
     0.89807635
     0.89589653
     0.89720487
     0.90209944
     0.89880009
     0.89860816
     0.90314248
     0.90163047
     0.89840180
     0.89842150
     0.89863980
     0.90230216
     0.89888975
     0.89871486
     0.89862950
     0.89926144
     0.89943021
     0.90225934
     0.89894930
     0.90626825
     0.90291359
     0.90250787
     0.90291895
     0.89091650
     0.89257781
     0.89158913
     0.89480280
     0.89150870
     0.89487854
     0.89265151
     0.89585706
     0.89380172
     0.89547352
     0.89549488
     0.89563271
     0.89543830
     0.89681112
     0.89839006
     0.89549325
     0.89988814
     0.90002469
     0.90039152
     0.89758343
     0.89177754
     0.89479993
     0.89183210
     0.89478533
     0.89174847
     0.89651304
     0.89129924
     0.89210180
     0.89560171
     0.89739355
     0.89432984
     0.89440841
     0.89970408
     0.90234110
     0.89749502
     0.89475515
     0.89769485
     0.89886957
     0.90331772
     0.90041759
     0.89841209
     0.89842551
     0.89866973
     0.89889067
     0.89873188
     0.89868033
     0.89944182
     0.90071350
     0.90418754
     0.90289134
     0.90143896
     0.90126144
     0.89813854
     0.89746390
     0.89229058
     0.89628825
     0.89867289
     0.90024635
     0.89815029
     0.89503428
     0.89790349
     0.89439227
     0.89283868
     0.89867744
     0.89712408
     0.89368027
     0.89515601
     0.89400964
     0.89820944
     0.89520773
     0.89660733
     0.89623375
     0.89585699
     0.89840711
     0.89700901
     0.89684773
     0.89660701
     0.89899042
     0.89346323
     0.89894890
     0.89680008
     0.89891592
     0.89500469
     0.89925427
     0.89491430
     0.89529957
     0.89715852
     0.89397167
     0.89969014
     0.89615924
     0.89626307
     0.89823891
     0.89727818
     0.89586196
     0.90114630
     0.90041789
     0.89741332
     0.89703684
     0.89953463
     0.89973110
     0.90015389
     0.89750829
     0.90005080
     0.90000225
     0.90013168
     0.90175647
     0.90120384
     0.89917294
     0.90045406
     0.89830577
     0.90176154
     0.89986035
     0.89891634
     0.90234340
     0.90296080
     0.90407870
     0.90067077
     0.90243058
     0.89902064
     0.89990600
     0.89531959
     0.89925536
     0.89587754
     0.89589741
     0.89478684
     0.89820036
     0.89658552
     0.89517294
     0.89775703
     0.89706959
     0.89700365
     0.89690733
     0.89922247
     0.89873720
     0.89504009
     0.89879197
     0.89502410
     0.89878815
     0.89344490
     0.89928310
     0.89903527
     0.89535568
     0.89393893
     0.89729531
     0.89732689
     0.89482745
     0.89285282
     0.89647318
     0.90084750
     0.90262363
     0.90061638
     0.89640543
     0.89928691
     0.89955899
     0.89973662
     0.90017109
     0.90005195
     0.90000418
     0.90010902
     0.90120233
     0.90058399
     0.89657320
     0.90174123
     0.90092276
     0.90119946
     0.89189571
     0.89100075
     0.89613408
     0.89258961
     0.89272573
     0.89796277
     0.89182166
     0.89321474
     0.89196145
     0.89581238
     0.89900829
     0.89384183
     0.89732737
     0.89382777
     0.89742984
     0.90006359
     0.89544220
     0.89842536
     0.89678608
     0.89549967
     0.90258746
     0.89857794
     0.90002815
     0.90031468
     0.90132587
     0.89187798
     0.89479571
     0.89183628
     0.89479608
     0.89180294
     0.89479442
     0.89416810
     0.89738723
     0.89578636
     0.89896183
     0.89807363
     0.89779540
     0.90211600
     0.90022454
     0.89881048
     0.90164001
     0.89840332
     0.89842170
     0.89864593
     0.90230187
     0.89886594
     0.89872558
     0.89867673
     0.89924881
     0.90125501
     0.89811518
     0.90415110
     0.89245980
     0.89419416
     0.89238204
     0.89584045
     0.89341747
     0.89359037
     0.89826854
     0.89252220
     0.89381912
     0.89730782
     0.89379436
     0.89560577
     0.89544215
     0.89842563
     0.89678893
     0.89697133
     0.89857810
     0.90002887
     0.90031081
     0.90130721
     0.89446435
     0.89642849
     0.89192728
     0.89335833
     0.89183015
     0.89647445
     0.89558757
     0.89740178
     0.89579449
     0.89728562
     0.89807309
     0.89720282
     0.90209619
     0.89872539
     0.90086321
     0.89840396
     0.89842204
     0.89863959
     0.89888869
     0.89873605
     0.89864143
     0.89984177
     0.89969038
     0.90417062
     0.89826662
     0.90419276
     0.89466688
     0.90315884
     0.90316747
     0.89581964
     0.89861733
     0.89676018
     0.89871581
     0.89484542
     0.89288216
     0.89923531
     0.89353786
     0.89913659
     0.89346304
     0.89401260
     0.89822563
     0.89520767
     0.89656069
     0.89785804
     0.89486113
     0.89840731
     0.89700728
     0.89681934
     0.89662077
     0.89880052
     0.89504539
     0.89879312
     0.89502470
     0.89878942
     0.89500309
     0.89710459
     0.89390033
     0.89545454
     0.89471429
     0.89626585
     0.89652281
     0.89589861
     0.89827194
     0.90146575
     0.89694986
     0.89953673
     0.89973119
     0.90015954
     0.89750747
     0.90004628
     0.90001865
     0.90016792
     0.90175674
     0.89993036
     0.90231454
     0.89678488
     0.89809112
     0.89542933
     0.89807959
     0.89516316
     0.89783612
     0.89598060
     0.89252918
     0.89881547
     0.89919244
     0.89360098
     0.89919966
     0.89474711
     0.89822570
     0.89520628
     0.89654537
     0.89620127
     0.89840755
     0.89700988
     0.89684857
     0.89660622
     0.89504915
     0.89340216
     0.89903462
     0.89679600
     0.89891168
     0.89343913
     0.89535596
     0.89391003
     0.89547089
     0.89619511
     0.89630803
     0.89659651
     0.89585317
     0.90115502
     0.89766022
     0.89953715
     0.89973141
     0.90015352
     0.90005147
     0.90000464
     0.90012201
     0.90117349
     0.90067607
     0.89679148
     1.00000000
     1.00000000
     1.00000000
     0.89706855
     0.90087922
     1.00000000
     0.90048492
     1.00000000
     0.89915390
     0.90390058
     1.00000000
     0.89922661
     1.00000000
     1.00000000
     0.90215970
     1.00000000
     0.90175885
     1.00000000
     1.00000000
     1.00000000
     0.90562735
     0.90572684
     1.00000000
     0.90391402
     1.00000000
     0.90063858
     1.00000000
     1.00000000
     0.89409325
     0.89741544
     1.00000000
     0.90261210
     0.89952588
     1.00000000
     1.00000000
     1.00000000
     1.00000000
     1.00000000
     0.90288141
     0.89768356
     1.00000000
     0.89729441
     0.89797450
     1.00000000
     1.00000000
     0.89837838
     0.89831764
     1.00000000
     0.89984682
     1.00000000
     0.90146725
     1.00000000
     1.00000000
     1.00000000
     0.90143782
     1.00000000
     1.00000000
     0.90107920
     0.89722175
     1.00000000
     1.00000000
     1.00000000
     1.00000000
     1.00000000
     0.90155297
     0.90414860
     0.90087130
     0.89655827
     1.00000000
     1.00000000
     1.00000000
     0.90077989
     0.90028566
     1.00000000
     0.90156851
     0.90495772
     1.00000000
     1.00000000
     0.90430585
     0.90148049
     1.00000000
     0.90112457
     1.00000000
     1.00000000
     1.00000000
     1.00000000
     1.00000000
     0.89698692
     0.89579848
     0.90437387
     1.00000000
     1.00000000
     0.90121529
     0.90128347
     1.00000000
     0.90186533
     0.89812559
     1.00000000
     1.00000000
     0.90289365
     1.00000000
     0.89464159
     1.00000000
     1.00000000
     0.90167487
     1.00000000
     0.90129658
     1.00000000
     1.00000000
     1.00000000
     1.00000000
     1.00000000
     1.00000000
     0.89339335
     1.00000000
     1.00000000
     1.00000000
     0.89779808
     0.90174311
     1.00000000
     0.90188261
     1.00000000
     0.89752523
     0.90127400
     1.00000000
     0.89468658
     1.00000000
     0.90405038
     0.89902129
     1.00000000
     1.00000000
     1.00000000
     0.90180935
     1.00000000
     1.00000000
     1.00000000
     1.00000000
     0.90161887
     0.90209366
     1.00000000
     0.90218300
     0.89841475
     1.00000000
     0.89918780
     1.00000000
     0.89724676
     0.90230215
     1.00000000
     1.00000000
     1.00000000
     0.89774251
     1.00000000
     1.00000000
     0.89640069
     1.00000000
     0.90223021
     0.90223212
     1.00000000
     0.89836812
     0.90167532
     0.90141982
     1.00000000
     1.00000000
     1.00000000
     0.90441090
     1.00000000
     1.00000000
     0.90273221
     0.89736293
     1.00000000
     0.89393656
     1.00000000
     0.89478753
     0.90274395
     1.00000000
     0.89406192
     1.00000000
     0.90225899
     0.90142138
     1.00000000
     1.00000000
     1.00000000
     0.90379943
     0.90456593
     1.00000000
     0.90017214
     1.00000000
     1.00000000
     1.00000000
     1.00000000
     0.89907097
     0.89922447
     1.00000000
     0.89713598
     0.90221473
     1.00000000
     0.89386509
     1.00000000
     0.90101863
     1.00000000
     1.00000000
     0.90196413
     0.90338222
     1.00000000
     1.00000000
     0.89780272
     1.00000000
     0.89815595
     1.00000000
     1.00000000
     1.00000000
     1.00000000
     1.00000000
     1.00000000
     0.89634736
     0.89289429
     0.90305089
     0.90164482
     1.00000000
     0.90248951
     1.00000000
     0.90219838
     1.00000000
     0.89731472
     1.00000000
     0.89711731
     1.00000000
     1.00000000
     1.00000000
     1.00000000
     1.00000000
     0.90284491
     0.90301133
     1.00000000
     1.00000000
     1.00000000
     1.00000000
     0.90006093
     0.89992003
     1.00000000
     0.90193886
     0.89787646
     0.90138816
     1.00000000
     0.90128403
     1.00000000
     1.00000000
     0.90196576
     0.90411715
     1.00000000
     1.00000000
     1.00000000
     1.00000000
     1.00000000
     0.89710733
     0.89720135
     0.90102677
     1.00000000
     1.00000000
     0.89653651
     1.00000000
     1.00000000
     1.00000000
     0.89826833
     0.89963254
     1.00000000
     0.89944769
     0.90251376
     0.90505294
     1.00000000
     1.00000000
     1.00000000
     0.90187490
     0.89851372
     1.00000000
     1.00000000
     0.90217738
     0.89988519
     1.00000000
     0.90272826
     0.90563761
     1.00000000
     1.00000000
     0.90426953
     1.00000000
     0.90154968
     0.90166170
     1.00000000
     0.90460364
     1.00000000
     1.00000000
     0.89933158
     0.90266502
     1.00000000
     0.89868274
     1.00000000
     0.89829027
     1.00000000
     0.89933857
     1.00000000
     1.00000000
     0.90128801
     0.90437514
     1.00000000
     1.00000000
     1.00000000
     0.90121765
     1.00000000
     1.00000000
     1.00000000
     0.89774260
     0.89950207
     1.00000000
     1.00000000
     1.00000000
     1.00000000
     1.00000000
     0.90077526
     0.89829137
     0.90196603
     1.00000000
     1.00000000
     0.90411723
     0.90128427
     1.00000000
     0.90323177
     1.00000000
     1.00000000
     1.00000000
     0.90102340
     0.90042310
     0.89395652
     1.00000000
     1.00000000
     1.00000000
     0.90104808
     0.90167509
     1.00000000
     0.90129671
     1.00000000
     1.00000000
     1.00000000
     1.00000000
     0.90135282
     0.90428611
     1.00000000
     1.00000000
     0.90165720
     0.89892301
     1.00000000
     1.00000000
     0.89787525
     1.00000000
     0.89920742
     1.00000000
     1.00000000
     0.90318939
     0.89966754
     1.00000000
     1.00000000
     0.90285076
     0.90160471
     0.90494624
     1.00000000
     1.00000000
     1.00000000
     0.90142460
     0.90266173
     1.00000000
     0.90513293
     1.00000000
     0.90215382
     1.00000000
     0.90175868
     1.00000000
     1.00000000
     0.90363938
     1.00000000
     1.00000000
     0.90247724
     0.90449464
     1.00000000
     0.90197684
     1.00000000
     1.00000000
     0.90461994
     1.00000000
     1.00000000
     0.90167663
     0.90144491
     1.00000000
     0.89797176
     1.00000000
     0.89930241
     1.00000000
     1.00000000
     0.89707066
     1.00000000
     1.00000000
     1.00000000
     0.90085256
     0.90410201
     0.90416388
     1.00000000
     1.00000000
     1.00000000
     0.90151933
     0.90117213
     0.90421213
     0.90375568
     1.00000000
     0.89691960
     1.00000000
     0.89556418
     1.00000000
     1.00000000
     1.00000000
     0.89813075
     0.89925638
     1.00000000
     1.00000000
     1.00000000
     0.89793046
     1.00000000
     0.90246609
     0.89923681
     1.00000000
     1.00000000
     0.89845394
     1.00000000
     0.89958481
     1.00000000
     0.89731511
     0.89993258
     1.00000000
     1.00000000
     0.90174624
     0.90147620
     1.00000000
     0.90467551
     1.00000000
     1.00000000
     0.89658045
     1.00000000
     0.89663428
     1.00000000
     0.89783398
     1.00000000
     1.00000000
     1.00000000
     1.00000000
     0.89800974
     0.89971122
     1.00000000
     0.89704700
     0.89736284
     1.00000000
     0.90177209
     1.00000000
     0.90117523
     0.90950524
     0.90551508
     1.00000000
     0.90573766
     0.90342082
     1.00000000
     1.00000000
     0.89859084
     0.90092171
     1.00000000
     0.89963403
     1.00000000
     0.90246954
     0.89918058
     1.00000000
     0.89906407
     1.00000000
     1.00000000
     0.89731009
     0.89729336
     1.00000000
     0.90050571
     1.00000000
     0.90203290
     0.90223277
     1.00000000
     1.00000000
     1.00000000
     0.89719784
     1.00000000
     1.00000000
     1.00000000
     1.00000000
     1.00000000
     0.90187644
     1.00000000
     1.00000000
     0.89808701
     0.90218348
     0.89707240
     1.00000000
     0.90213780
     0.90418016
     0.89443191
     1.00000000
     1.00000000
     1.00000000
     1.00000000
     1.00000000
     0.89672648
     0.89767373
     0.89790864
     0.90170680
     1.00000000
     1.00000000
     1.00000000
     0.89805683
     1.00000000
     0.89722813
     0.90125635
     1.00000000
     0.89547568
     1.00000000
     1.00000000
     1.00000000
     1.00000000
     0.90412640
     1.00000000
     0.89796122
     1.00000000
     0.89786885
     1.00000000
     1.00000000
     0.89959045
     0.90361266
     1.00000000
     1.00000000
     0.89943015
     0.90349254
     1.00000000
     0.89902471
     1.00000000
     0.89961473
     1.00000000
     1.00000000
     1.00000000
     1.00000000
     1.00000000
     1.00000000
     1.00000000
     0.90351174
     0.90008998
     0.89715582
     1.00000000
     1.00000000
     1.00000000
     0.89699929
     1.00000000
     0.89711777
     0.90047776
     1.00000000
     0.90090311
     1.00000000
     0.89738411
     0.90286439
     1.00000000
     0.89802423
     1.00000000
     1.00000000
     0.89749378
     0.90126557
     1.00000000
     1.00000000
     0.89637462
     1.00000000
     0.89470185
     1.00000000
     1.00000000
     1.00000000
     0.90124081
     0.89722844
     1.00000000
     0.90160978
     1.00000000
     1.00000000
     0.89642137
     0.90076003
     1.00000000
     0.89686689
     1.00000000
     0.89733604
     0.90269908
     0.89392658
     1.00000000
     0.89662409
     0.89842979
     1.00000000
     0.90137615
     1.00000000
     0.90178508
     0.89693013
     1.00000000
     1.00000000
     0.89812669
     0.90411084
     1.00000000
     1.00000000
     1.00000000
     0.90080666
     1.00000000
     1.00000000
     0.90285723
     1.00000000
     0.89807049
     1.00000000
     1.00000000
     0.89920604
     0.89824658
     1.00000000
     0.89886009
     1.00000000
     0.90142239
     1.00000000
     1.00000000
     1.00000000
     0.89826735
     0.90416321
     0.90300319
     0.90123650
     1.00000000
     1.00000000
     0.89856098
     0.89788875
     0.90142414
     0.90472275
     0.90257691
     0.90500764
     1.00000000
     1.00000000
     0.90000617
     0.90515747
     1.00000000
     0.90034807
     1.00000000
     0.90160472
     1.00000000
     0.90101733
     0.89731817
     1.00000000
     1.00000000
     0.90134526
     0.90169944
     1.00000000
     0.89724545
     1.00000000
     1.00000000
     0.89846827
     0.89792128
     1.00000000
     0.90297946
     1.00000000
     0.89961706
     0.89912567
     1.00000000
     0.89846301
     0.90461834
     1.00000000
     1.00000000
     0.90148252
     0.89686147
     1.00000000
     1.00000000
     1.00000000
     0.89732309
     0.89700675
     1.00000000
     1.00000000
     1.00000000
     1.00000000
     0.89370466
     1.00000000
     0.90334209
     0.89744166
     0.90185581
     0.90189824
     0.90180398
     1.00000000
     1.00000000
     1.00000000
     0.89712436
     0.90060594
     1.00000000
     0.89672036
     1.00000000
     0.90052615
     0.90289443
     1.00000000
     1.00000000
     0.89691068
     0.90404110
     0.89901890
     0.90209451
     1.00000000
     0.89843407
     0.89563994
     0.90287139
     1.00000000
     0.90135456
     0.90243961
     0.90569207
     0.90486206
     0.90167251
     1.00000000
     0.90256811
     0.90406896
     1.00000000
     0.90114940
     1.00000000
     0.90423197
     0.90437404
     0.90121600
     1.00000000
     1.00000000
     1.00000000
     1.00000000
     0.90178527
     1.00000000
     0.90376766
     1.00000000
     0.90180431
     0.90295980
     0.89961389
     1.00000000
     0.89868798
     1.00000000
     0.90148142
     1.00000000
     0.90050247
     0.90124319
     1.00000000
     0.89422573
     1.00000000
     0.89945818
     1.00000000
     0.90038566
     1.00000000
     0.90101148
     0.90422018
     1.00000000
     0.90280483
     0.90406850
     1.00000000
     0.90303734
     0.90414188