# vtk DataFile Version 3.0
Example VTK
ASCII
DATASET UNSTRUCTURED_GRID
POINTS  1589 float
 -0.715878274797E+01 -0.456290629204E+01  0.157359036610E-26
 -0.580970680793E+01 -0.614944378339E+01  0.457817759448E-26
 -0.446919744063E+01 -0.712612054098E+01  0.533034138841E-26
 -0.313448872374E+01 -0.772582700836E+01  0.576263534126E-26
 -0.180161850802E+01 -0.803074242024E+01  0.595888121846E-26
 -0.476234139546E+00 -0.804342212138E+01  0.587808151569E-26
  0.844473258801E+00 -0.777253763234E+01  0.461240067367E-26
  0.164966658974E+01 -0.713276814508E+01  0.292369021761E-26
  0.255688000000E+01 -0.652469000000E+01  0.158550008955E-26
 -0.718195992253E+01 -0.366061694025E+01  0.625091293361E-02
 -0.588319757401E+01 -0.493672478115E+01  0.000000000000E+00
 -0.458336196231E+01 -0.571850113767E+01  0.000000000000E+00
 -0.328569675806E+01 -0.619719055432E+01  0.000000000000E+00
 -0.199362163570E+01 -0.643372094433E+01  0.000000000000E+00
 -0.700004600969E+00 -0.643204725853E+01  0.000000000000E+00
  0.617210233898E+00 -0.619008741685E+01  0.000000000000E+00
  0.158066883232E+01 -0.576211311482E+01  0.000000000000E+00
  0.274721394664E+01 -0.540878242621E+01  0.000000000000E+00
 -0.719678199875E+01 -0.275717419966E+01  0.738239034542E-02
 -0.593239702086E+01 -0.372097952232E+01  0.000000000000E+00
 -0.466886978843E+01 -0.430712439789E+01  0.000000000000E+00
 -0.339989494457E+01 -0.466254994427E+01  0.000000000000E+00
 -0.212262098409E+01 -0.483262186295E+01  0.000000000000E+00
 -0.820348314603E+00 -0.481956328673E+01  0.000000000000E+00
  0.548584335410E+00 -0.461737547881E+01  0.000000000000E+00
  0.163222246164E+01 -0.444201508682E+01  0.000000000000E+00
  0.290492246630E+01 -0.433721799370E+01  0.000000000000E+00
 -0.720622680254E+01 -0.185310616652E+01  0.763284232292E-02
 -0.596655852650E+01 -0.250008175438E+01  0.000000000000E+00
 -0.472812802211E+01 -0.289141727832E+01  0.000000000000E+00
 -0.347637787944E+01 -0.312654102374E+01  0.000000000000E+00
 -0.220223580884E+01 -0.323592762935E+01  0.000000000000E+00
 -0.883084971492E+00 -0.322055922510E+01  0.000000000000E+00
  0.524755534784E+00 -0.307799845436E+01  0.000000000000E+00
  0.169992058371E+01 -0.315004953277E+01  0.000000000000E+00
  0.306249148014E+01 -0.327037491111E+01  0.000000000000E+00
 -0.721273110052E+01 -0.948169186588E+00  0.740953805000E-02
 -0.598880938684E+01 -0.127507421571E+01  0.000000000000E+00
 -0.476649906190E+01 -0.147223028572E+01  0.000000000000E+00
 -0.352473991982E+01 -0.159045432797E+01  0.000000000000E+00
 -0.225039922990E+01 -0.164481931845E+01  0.000000000000E+00
 -0.918425469010E+00 -0.163585072470E+01  0.000000000000E+00
  0.515599898103E+00 -0.156226202515E+01  0.000000000000E+00
  0.176708270668E+01 -0.187230943177E+01  0.000000000000E+00
  0.320307919211E+01 -0.219868309610E+01  0.000000000000E+00
 -0.721909011449E+01 -0.428541171074E-01  0.732869185259E-02
 -0.600346750085E+01 -0.470170609315E-01  0.000000000000E+00
 -0.479011216425E+01 -0.504188243947E-01  0.000000000000E+00
 -0.355460144276E+01 -0.537954856587E-01  0.000000000000E+00
 -0.228161544870E+01 -0.567757045639E-01  0.000000000000E+00
 -0.943904365129E+00 -0.586640229594E-01  0.000000000000E+00
  0.505167434571E+00 -0.625542103866E-01  0.000000000000E+00
  0.184180434151E+01 -0.597756555416E+00  0.000000000000E+00
  0.333333000000E+01 -0.112691000000E+01  0.530101081483E-26
 -0.722660597486E+01  0.862589303507E+00  0.738780020984E-02
 -0.601271805812E+01  0.118212677709E+01  0.000000000000E+00
 -0.480123808860E+01  0.137296358834E+01  0.000000000000E+00
 -0.356900920685E+01  0.148467418633E+01  0.000000000000E+00
 -0.230069661674E+01  0.153309988577E+01  0.000000000000E+00
 -0.967148438151E+00  0.151943311886E+01  0.000000000000E+00
  0.483070866489E+00  0.143711312861E+01  0.000000000000E+00
  0.172513787988E+01  0.899320464850E+00  0.000000000000E+00
  0.311906006065E+01  0.388955898851E+00  0.000000000000E+00
 -0.723438109231E+01  0.176773787506E+01  0.765812047667E-02
 -0.601362934425E+01  0.241014340093E+01  0.000000000000E+00
 -0.479465669372E+01  0.279641220614E+01  0.000000000000E+00
 -0.355974745385E+01  0.302573499227E+01  0.000000000000E+00
 -0.229583753513E+01  0.312870644621E+01  0.000000000000E+00
 -0.973010817542E+00  0.310630904258E+01  0.000000000000E+00
  0.466244436736E+00  0.294714799551E+01  0.000000000000E+00
  0.160155153067E+01  0.239542793242E+01  0.000000000000E+00
  0.289016546420E+01  0.191205657426E+01  0.000000000000E+00
 -0.724000523278E+01  0.267233058345E+01  0.751025127518E-02
 -0.600196172198E+01  0.363506612701E+01  0.000000000000E+00
 -0.476389045745E+01  0.421811586019E+01  0.000000000000E+00
 -0.351753247814E+01  0.456893562446E+01  0.000000000000E+00
 -0.225669304987E+01  0.473232267979E+01  0.000000000000E+00
 -0.955378352099E+00  0.470833682173E+01  0.000000000000E+00
  0.446343957411E+00  0.448028174846E+01  0.000000000000E+00
  0.145506405985E+01  0.390136229948E+01  0.000000000000E+00
  0.262144829336E+01  0.342439218109E+01  0.000000000000E+00
 -0.724116150383E+01  0.357651920955E+01  0.667224595001E-02
 -0.597432851505E+01  0.485490137056E+01  0.000000000000E+00
 -0.470205037884E+01  0.563627355602E+01  0.000000000000E+00
 -0.342952773390E+01  0.611251423360E+01  0.000000000000E+00
 -0.216016799144E+01  0.634358516499E+01  0.000000000000E+00
 -0.883384594124E+00  0.632999157008E+01  0.000000000000E+00
  0.444980345950E+00  0.605355485324E+01  0.000000000000E+00
  0.129056540969E+01  0.543342282082E+01  0.000000000000E+00
  0.230592069037E+01  0.494788432489E+01  0.000000000000E+00
 -0.723527969981E+01  0.447972291433E+01  0.157265659430E-26
 -0.592126784233E+01  0.607053250443E+01  0.459451095203E-26
 -0.460562370078E+01  0.704998418906E+01  0.535249932391E-26
 -0.329246643823E+01  0.765074489001E+01  0.578177993692E-26
 -0.198128113896E+01  0.795266183749E+01  0.595735852877E-26
 -0.677530324051E+00  0.795667925565E+01  0.581480507026E-26
  0.611514510166E+00  0.765759175370E+01  0.415703536484E-26
  0.121188640535E+01  0.702868551241E+01  0.244016974261E-26
  0.195297000000E+01  0.652469000000E+01  0.142236361409E-26
 -0.715870348800E+01 -0.450731138940E+01  0.830498965272E+00
 -0.580928647619E+01 -0.607426191784E+01  0.111843932495E+01
 -0.446808162632E+01 -0.703869161280E+01  0.129654197598E+01
 -0.313241697283E+01 -0.763079276830E+01  0.140664983742E+01
 -0.179845984965E+01 -0.793160894573E+01  0.146383286762E+01
 -0.471177354092E+00 -0.794416530630E+01  0.147377195156E+01
  0.851467212932E+00 -0.767668013348E+01  0.143960041244E+01
  0.166291381049E+01 -0.705499261821E+01  0.126601039955E+01
  0.256440000000E+01 -0.647239000000E+01  0.677093000000E+00
 -0.718069607590E+01 -0.363585467466E+01  0.924183589614E+00
 -0.587974132172E+01 -0.490249862492E+01  0.124525160473E+01
 -0.457514858892E+01 -0.567891172147E+01  0.144302633120E+01
 -0.327336843785E+01 -0.615437544129E+01  0.156650344754E+01
 -0.197692908700E+01 -0.638935838965E+01  0.163089123875E+01
 -0.679222212233E+00 -0.638816945846E+01  0.164089680771E+01
  0.640149882340E+00 -0.615151555214E+01  0.158180128824E+01
  0.159663236201E+01 -0.573507710774E+01  0.137138357464E+01
  0.274780454585E+01 -0.539552656986E+01  0.754185672145E+00
 -0.719564892574E+01 -0.275059235776E+01  0.997650406566E+00
 -0.592744779414E+01 -0.371094511600E+01  0.134343881290E+01
 -0.465734217454E+01 -0.429571537395E+01  0.155701417638E+01
 -0.338242899583E+01 -0.465053149155E+01  0.168880331335E+01
 -0.210039804625E+01 -0.482069715889E+01  0.175571521811E+01
 -0.795731271424E+00 -0.480906977180E+01  0.175902048799E+01
  0.570435429289E+00 -0.461075091127E+01  0.168945402175E+01
  0.164403116115E+01 -0.443932778356E+01  0.146682194042E+01
  0.290032855736E+01 -0.433918450709E+01  0.816243848646E+00
 -0.720544639354E+01 -0.185442930916E+01  0.104711125732E+01
 -0.596125067954E+01 -0.250101299559E+01  0.141014000317E+01
 -0.471544807558E+01 -0.289267608545E+01  0.163351309101E+01
 -0.345736603196E+01 -0.312830397108E+01  0.177062352144E+01
 -0.217873920487E+01 -0.323830274650E+01  0.183820719079E+01
 -0.858233272312E+00 -0.322422307085E+01  0.183873678500E+01
  0.545385153370E+00 -0.308304740450E+01  0.176592896016E+01
  0.170883671141E+01 -0.315543848939E+01  0.152951494004E+01
  0.305541075046E+01 -0.327390770837E+01  0.845113363525E+00
 -0.721241502765E+01 -0.950568319684E+00  0.107116275454E+01
 -0.598373002087E+01 -0.127779764985E+01  0.144281169478E+01
 -0.475388399933E+01 -0.147552564375E+01  0.167070463182E+01
 -0.350578037972E+01 -0.159430533416E+01  0.180997341329E+01
 -0.222723081231E+01 -0.164921848615E+01  0.187751587886E+01
 -0.894028411129E+00 -0.164080878766E+01  0.187653947329E+01
  0.536074855311E+00 -0.156692971416E+01  0.180199198623E+01
  0.177614582234E+01 -0.187654807966E+01  0.155874615727E+01
  0.319622076899E+01 -0.219829893790E+01  0.843330340712E+00
 -0.721899178822E+01 -0.428323288178E-01  0.106873064157E+01
 -0.599868888117E+01 -0.468915990210E-01  0.143987289755E+01
 -0.477789273073E+01 -0.502847888833E-01  0.166699228894E+01
 -0.353631793820E+01 -0.537837485357E-01  0.180532553321E+01
 -0.225965985552E+01 -0.569089197874E-01  0.187131024361E+01
 -0.921463183397E+00 -0.586340529793E-01  0.186786872783E+01
  0.523279406922E+00 -0.613463370426E-01  0.179137369498E+01
  0.185212653161E+01 -0.598459221506E+00  0.153152575291E+01
  0.333333000000E+01 -0.112691000000E+01  0.833333000000E+00
 -0.722639250357E+01  0.865001160359E+00  0.107139158639E+01
 -0.600766484606E+01  0.118511029792E+01  0.144390079371E+01
 -0.478864521044E+01  0.137654920173E+01  0.167177842999E+01
 -0.355047665180E+01  0.148864418239E+01  0.181022766783E+01
 -0.227915278141E+01  0.153742717051E+01  0.187539833105E+01
 -0.946781364020E+00  0.152474006573E+01  0.186928943248E+01
[...]
POINT_DATA      1589
VECTORS Velocities float 
     0.00000000     0.00000000     0.00000000
     0.00000000     0.00000000     0.00000000
     0.00000000     0.00000000     0.00000000
     0.00000000     0.00000000     0.00000000
     0.00000000     0.00000000     0.00000000
     0.00000000     0.00000000     0.00000000
     0.00000000     0.00000000     0.00000000
     0.00000000     0.00000000     0.00000000
     0.00000000     0.00000000     0.00000000
     0.00000000     0.00000000     0.00000000
   -80.20536504    88.48949279     0.00000000
   -84.21250542     8.90537935     0.00000000
  -120.86417888    44.41977106     0.00000000
  -185.31749044     8.12915620     0.00000000
  -223.76235994    11.07516129     0.00000000
  -263.32340365   -37.79041607     0.00000000
  -317.89091377   -30.75507205     0.00000000
  -393.93661036   -90.45210120     0.00000000
     0.00000000     0.00000000     0.00000000
  -150.70584020    74.58803488     0.00000000
   -93.81009434    26.35208681     0.00000000
   -82.72290533    36.90260371     0.00000000
  -146.01870253     5.21006448     0.00000000
  -121.68810060    -4.83433346     0.00000000
  -137.96952461    32.06447510     0.00000000
   -17.97385518    19.18294493     0.00000000
   131.87631075   122.00163033     0.00000000
     0.00000000     0.00000000     0.00000000
  -160.32645541    -6.23672027     0.00000000
   -76.70467021    55.17032287     0.00000000
    -0.53408658    49.02606958     0.00000000
    -9.43021577   -35.99080334     0.00000000
    -0.66397379   -27.96622054     0.00000000
    77.76063132   -64.43711281     0.00000000
   114.51414227    38.50147321     0.00000000
   120.21982279   110.81170975     0.00000000
     0.00000000     0.00000000     0.00000000
  -128.34427513   -79.18466265     0.00000000
   -42.54264323    47.99605164     0.00000000
    73.92954455    73.06281339     0.00000000
     4.89851965    31.51759869     0.00000000
   -17.56290284   -83.43388647     0.00000000
   -35.25931523   -98.63104743     0.00000000
    48.33321895    93.29310751     0.00000000
   230.64607439     4.85013753     0.00000000
     0.00000000     0.00000000     0.00000000
  -143.65488353  -111.96284142     0.00000000
   -25.57240721     8.01799955     0.00000000
    27.47716662    87.86503377     0.00000000
    44.75242977    66.14630760     0.00000000
   -37.08798067     5.55510212     0.00000000
  -100.13855043   -56.71129014     0.00000000
    15.16148607   115.62287299     0.00000000
     0.00000000     0.00000000     0.00000000
     0.00000000     0.00000000     0.00000000
  -122.06225896  -124.21608262     0.00000000
   -59.17300598   -22.80964679     0.00000000
    70.97233077    45.14069894     0.00000000
   -21.48202402    61.63436206     0.00000000
    71.51808280     9.02061205     0.00000000
   -54.91074779    64.32992856     0.00000000
    84.05172748  -209.20688241     0.00000000
   145.62150939   170.20561685     0.00000000
     0.00000000     0.00000000     0.00000000
  -156.18206654  -120.03173341     0.00000000
   -81.47271228   -54.82021243     0.00000000
   -40.43082212   -36.43994945     0.00000000
   -32.26704719    58.94297314     0.00000000
    -4.08964631   -78.19851776     0.00000000
    72.06042908   111.06336610     0.00000000
   -17.82694056  -209.11380832     0.00000000
   -36.23380701   170.60651813     0.00000000
     0.00000000     0.00000000     0.00000000
  -129.63515191  -110.01759396     0.00000000
  -125.52341000   -73.13258219     0.00000000
  -131.19396458   -59.86704504     0.00000000
  -138.79319781   -25.29283141     0.00000000
   -77.82801566   -21.59945153     0.00000000
   -25.29417556   -11.32364777     0.00000000
    55.76435674    -8.61518429     0.00000000
    16.72108175    51.56947591     0.00000000
     0.00000000     0.00000000     0.00000000
   -64.23540460   -89.47621678     0.00000000
  -102.77448795   -34.17187813     0.00000000
  -138.62023858   -48.63877348     0.00000000
  -207.39610189   -26.56973138     0.00000000
  -236.42916987   -12.35355926     0.00000000
  -261.57932988    43.69258530     0.00000000
  -283.32591631   107.45566556     0.00000000
  -223.77280792   205.87900590     0.00000000
     0.00000000     0.00000000     0.00000000
     0.00000000     0.00000000     0.00000000
     0.00000000     0.00000000     0.00000000
     0.00000000     0.00000000     0.00000000
     0.00000000     0.00000000     0.00000000
     0.00000000     0.00000000     0.00000000
     0.00000000     0.00000000     0.00000000
     0.00000000     0.00000000     0.00000000
     0.00000000     0.00000000     0.00000000
     0.00000000     0.00000000     0.00000000
     0.00000000     0.00000000     0.00000000
     0.00000000     0.00000000     0.00000000
     0.00000000     0.00000000     0.00000000
     0.00000000     0.00000000     0.00000000
     0.00000000     0.00000000     0.00000000
     0.00000000     0.00000000     0.00000000
     0.00000000     0.00000000     0.00000000
     0.00000000     0.00000000     0.00000000
     0.00000000     0.00000000     0.00000000
   -21.26425846    -4.47390686    31.95666114
   -80.24082619    43.76120034   -18.29165312
  -114.84947940    24.29748135    48.98753597
  -141.91091970     9.37478263     6.00078276
  -177.30766066    10.38244654    30.29358501
  -207.83924549   -20.39585196    -3.84733097
  -270.18631561   -46.75187482   -11.36816262
  -399.23136500  -103.69783551   -37.67261121
     0.00000000     0.00000000     0.00000000
   -16.73147515    35.92291443   109.24602888
   -90.40501018    38.29269156   -76.83300168
   -81.90334324    29.17421526    61.20568646
  -102.57331868    22.21077885   -14.95418657
   -80.07609454   -36.68463750    43.79221659
   -68.69745866     7.36096237   -28.63336245
   -78.61800917    15.63499113   -79.12505348
   129.24753095   -14.82316678  -111.04924268
     0.00000000     0.00000000     0.00000000
    32.72206198    28.62762887   129.18021708
    49.33217978   -80.10871397   -63.42416783
    -3.57623120    79.13691912    29.38584483
    24.04517905   -23.25824640   -30.45555383
     3.78951816    17.15929982    25.68857583
    73.33759996   -76.79816285    23.72860261
   127.73198266    89.24187092   -45.04048503
    30.22946693   -20.20794555   -23.36898578
     0.00000000     0.00000000     0.00000000
    92.80457692   -46.30559426   112.16746059
    47.42559186  -117.46873085   -63.59900904
    86.73489484    38.57885334    14.22104005
    71.57469633     2.41445976   -47.96507268
    67.30650054    32.82642836    31.31355237
    62.23480828  -106.83620009   -75.85097414
    82.23636598    88.74768189    -8.63929627
   199.00527718   -27.78363390   -58.63629388
     0.00000000     0.00000000     0.00000000
    43.12505244   -94.09253007    73.91707501
    28.51708463   -96.03635018   -85.05274492
    -9.61135965    50.90918453    10.47222022
    58.88883509    10.54136153   -45.68990624
    46.20372293    43.98763415    13.07317392
   -28.14281555   -57.93559844   -51.33293027
     3.68221315    51.59396959   -49.45865253
     0.00000000     0.00000000     0.00000000
     0.00000000     0.00000000     0.00000000
    32.23205600  -107.33805692    73.21124509
   -22.41742532   -84.28356352   -71.81921039
    11.02698903    82.86867935    47.08065169
     8.06407017    30.35245296   -10.72359700
    33.74083992    12.01809907    40.89388508
    -4.11944397   103.23852520   -32.25791329
    72.87883949  -163.46355408    20.81613662
   100.39680963   177.76107343   -65.83282778
     0.00000000     0.00000000     0.00000000
   -15.22068505  -107.86106172    54.16793780
   -76.88108553   -73.06864282   -56.28890009
   -46.46868987    -2.98220870    82.94150485
    66.87427576    54.77158466     2.22646304
   -37.49260983   -26.00279890    38.17451232
    72.83701064   150.31854961   -41.76291058
    43.73099700  -201.35952651   -26.69006704
     5.79893110   167.07480601   -82.90349147
     0.00000000     0.00000000     0.00000000
   -26.22769529   -59.51473345    66.77510107
  -120.43470895   -84.79290336   -48.44949808
  -127.25788634   -43.96448514    38.68751319
  -108.14160809   -30.39657347   -23.68485860
   -63.95729882    22.23941549    12.17096066
   -21.19426907    32.97378365   -73.96043387
    30.51197429   -34.12043875    57.21365409
    32.74127062    69.52066873  -151.70023383
     0.00000000     0.00000000     0.00000000
   -30.14011025    -5.31128162    12.44481440
   -95.63682801   -56.37855665   -11.79784725
  -151.88420228   -43.54304371    20.89051773
  -178.58168891   -28.47767640    -4.03923090
  -228.16297199   -12.64568167    11.97018616
  -217.20940060    42.47493223    -2.35193668
  -250.67803404   133.11726990    -4.60078993
  -219.40939356   200.82132491   -11.19823934
     0.00000000     0.00000000     0.00000000
     0.00000000     0.00000000     0.00000000
     0.00000000     0.00000000     0.00000000
     0.00000000     0.00000000     0.00000000
     0.00000000     0.00000000     0.00000000
     0.00000000     0.00000000     0.00000000
     0.00000000     0.00000000     0.00000000
     0.00000000     0.00000000     0.00000000
     0.00000000     0.00000000     0.00000000
     0.00000000     0.00000000     0.00000000
     0.00000000     0.00000000     0.00000000
     0.00000000     0.00000000     0.00000000
     0.00000000     0.00000000     0.00000000
     0.00000000     0.00000000     0.00000000
     0.00000000     0.00000000     0.00000000
     0.00000000     0.00000000     0.00000000
     0.00000000     0.00000000     0.00000000
     0.00000000     0.00000000     0.00000000
     0.00000000     0.00000000     0.00000000
     4.40429707    24.93669332    57.77131950
   -33.13898514    20.79979068     3.81662894
   -55.34455401    32.33185277    42.21477509
   -54.90820929    26.79184996    26.57943640
   -38.36022915    -3.78358040    14.13198905
   -52.70522041    13.37818215    12.66785105
  -152.23043058   -50.56414586     9.43695825
  -434.52975512   -73.86579314   -16.13323293
     0.00000000     0.00000000     0.00000000
     8.70232889    30.09196283    72.20550656
     1.51999780    -0.02979345    12.28979496
   -36.29830701    38.76866418    24.58793303
   -44.30479187    37.63942060    15.40816688
   -19.60994300    15.26635468     5.41165724
    53.21125170   -16.90614364    22.86535687
  -104.33559036    68.16442776   -58.18811898
    -0.71558384   -77.41781015  -124.52822652
     0.00000000     0.00000000     0.00000000
    39.06656255    28.38279668   125.69685179
   102.10174035   -72.09646794    41.12520834
    80.95933207    45.92575636    28.20130496
    69.91514084   -20.83687512     6.61825906
    80.35914295    50.62647343   -14.61816207
    70.29618313   -61.74136007     4.15498780
   117.09564630   135.38939192   -79.71966211
   -25.17035147  -107.20365691   -73.66219945
     0.00000000     0.00000000     0.00000000
    83.68954751   -25.97815789    98.38914248
    99.97313810   -87.82013144     0.86883023
    81.00870162    17.90978098     9.18590317
   102.08807588   -54.19276098   -25.43080561
    77.97616269    62.89002664    23.15745167
   119.14116213   -76.41336177   -67.99852500
   122.53762804   107.11489150    24.88572738
   193.25350567   -43.57828622   -94.09364510
     0.00000000     0.00000000     0.00000000
    29.25646935   -69.63992079    59.97090162
    48.71716662   -82.67120978   -28.38624936
    15.51458190   -26.58636533   -49.19091714
    16.18293297   -44.40541409   -42.60335268
    66.29261024    49.38820327   -24.55938713
    25.30684600   -41.67510465   -50.35231191
    66.33166648    69.64568257   -95.22953493
     0.00000000     0.00000000     0.00000000
     0.00000000     0.00000000     0.00000000
    15.79350154   -82.35964092    44.77128593
    -9.95083017   -87.78988599   -27.11587166
    -0.05417063   -42.56089405     3.88744927
   -18.93453007     2.25115474   -39.45443179
    62.90791188   -24.71333665    32.69488542
    -2.20322776   117.74098947   -51.72670913
    83.82585728  -136.58960085   -35.39694085
    76.40478241   181.95735752   -71.63048494
     0.00000000     0.00000000     0.00000000
   -30.21093366   -79.00923847    46.00398998
   -57.83044712   -82.62396606    -9.94085304
   -45.88529717   -39.28899439    33.66935222
    45.22504333    15.39443321    29.48248298
    11.29799960   -13.08499378    64.68752771
    21.79854688    85.64098345   -55.38459860
   104.55995990  -154.78892114   -62.43410302
    48.37821175   198.69792666  -129.76688659
     0.00000000     0.00000000     0.00000000
   -26.07443289   -48.35299526    31.73040728
   -92.36051199   -72.96486076     1.34588961
  -103.28725374   -42.44404232     7.11531164
  -105.23696330   -29.25186579    17.98679828
   -56.73754321    24.16071025    -0.83175244
  -110.09011368    18.67724189   -35.05013743
   -62.06660579    23.97971100   -82.14944402
    14.83399070   146.60660129  -163.41224893
     0.00000000     0.00000000     0.00000000
   -13.83057559   -34.50461429    39.81158099
   -77.10674797   -36.06691334     4.68317321
  -121.02780021   -48.87662074    10.97706092
  -168.81544309   -20.19821346    14.74259574
  -208.81829862   -13.90581312    11.51349201
  -231.54364572    61.97477548    29.14789778
  -257.01027591   133.17340230    23.76561330
  -250.91049346   183.43697122    20.29719536
     0.00000000     0.00000000     0.00000000
     0.00000000     0.00000000     0.00000000
     0.00000000     0.00000000     0.00000000
     0.00000000     0.00000000     0.00000000
     0.00000000     0.00000000     0.00000000
     0.00000000     0.00000000     0.00000000
     0.00000000     0.00000000     0.00000000
     0.00000000     0.00000000     0.00000000
     0.00000000     0.00000000     0.00000000
     0.00000000     0.00000000     0.00000000
     0.00000000     0.00000000     0.00000000
     0.00000000     0.00000000     0.00000000
     0.00000000     0.00000000     0.00000000
     0.00000000     0.00000000     0.00000000
     0.00000000     0.00000000     0.00000000
     0.00000000     0.00000000     0.00000000
     0.00000000     0.00000000     0.00000000
     0.00000000     0.00000000     0.00000000
     0.00000000     0.00000000     0.00000000
     0.87402779    20.77872413    35.07097808
    13.29407061     1.44770414    23.95251920
    45.09371698    -5.75973365    18.68651780
    41.50519887    29.36961994    21.37489864
    45.50526021   -12.62827838    -6.40694293
    70.84445174    29.54159058     2.46051902
   120.27197850   -13.85039819   -16.26693830
  -370.28083742   -10.52533888     2.75673173
     0.00000000     0.00000000     0.00000000
    15.85665683    37.06055293    60.84187318
    55.51367603   -20.98666031    46.10428115
    59.75909753    13.79469117    35.51229195
   100.97966987    -2.90025704    13.22226871
    50.19826349    28.92855423    -4.99497403
   126.50495207   -23.36322513   -16.09724505
    45.62187759    48.61518735    18.67153362
   -31.41498620    60.23724774  -116.40848970
     0.00000000     0.00000000     0.00000000
    35.16125838    34.93323484    89.84541657
    92.68927344   -53.73921859    59.23057869
   111.69401624    35.21418172    40.44780629
   110.25046813   -37.31701762    29.47995222
   120.51924369    60.29958092    -4.61414782
    96.31746544   -64.75417555   -12.04327341
    73.07337223   148.59606869   -77.71074197
   -22.06177851   -36.58937034  -114.20755979
     0.00000000     0.00000000     0.00000000
    71.13814088    -4.84896015    95.95527760
    90.47057864   -57.92440011    19.38324510
   103.19296065    12.46922302    36.59665515
   114.05494562   -33.78529188   -20.07352260
   115.91793312    46.00150796    17.47483425
    98.35819273   -54.68846695   -47.63635392
   179.06932766   103.96811100     6.09229008
   203.82218970   -53.51861962   -41.74705762
     0.00000000     0.00000000     0.00000000
    41.22677861   -43.10259202    43.34271889
    53.99706585   -49.06147574     2.61291472
    69.50023361   -46.39195956    -3.19179017
    74.28888922   -33.40797241   -41.33652840
    88.83784461    20.24916749   -25.22091720
    25.74045878   -22.44335262   -43.84931098
    28.37259927   112.02158364  -134.27838328
     0.00000000     0.00000000     0.00000000
     0.00000000     0.00000000     0.00000000
     6.00659897   -61.32303753    45.54791122
    11.34608703   -59.74670067    -4.70564828
    15.92415917   -84.25017240   -12.58146587
    21.84533565   -25.36116969   -57.92569334
    50.90987494   -34.60620638    -1.12774500
    35.47226378    88.29657591   -45.63590842
    29.20005833   -42.01270913    -3.16067686
    50.00209035   220.27997649   -63.98278186
     0.00000000     0.00000000     0.00000000
    -8.34269692   -62.40994403    37.90297479
   -14.86764730   -71.16613491     0.94941840
   -43.15269543   -70.97254082     2.07484233
    -1.92234156   -44.20917380    -6.70949524
    -7.16032258    -0.42210855    55.65927285
    50.21669493    77.11319002   -30.48663559
     6.58386574  -120.26259601   -45.31000162
    16.34976183   256.93514149  -185.71157777
     0.00000000     0.00000000     0.00000000
   -10.20961408   -49.84691655    44.85941010
   -46.62256348   -60.46242992     7.40556626
   -74.74090669   -49.86829552    17.24683473
   -80.73284945   -50.76829296    15.64937439
   -37.50627292    22.15193572    21.17887167
    29.04932236    10.07057734   -47.13049639
  -127.46850023     4.42055893   -46.40871194
   -93.36750909   162.49019120  -137.62207416
     0.00000000     0.00000000     0.00000000
   -19.23340945   -31.74848867    30.73393378
   -28.66193787   -29.13402904    22.36619124
   -89.01471789   -39.68611182    11.02770867
  -108.19264050   -24.97741359    22.63534264
  -160.96684677   -23.09331512    31.91553019
  -160.14376553     6.00151057    49.73767796
  -228.13651634   103.90260495    86.46360460
  -306.44130417   148.53473045    39.97567096
     0.00000000     0.00000000     0.00000000
     0.00000000     0.00000000     0.00000000
     0.00000000     0.00000000     0.00000000
     0.00000000     0.00000000     0.00000000
     0.00000000     0.00000000     0.00000000
     0.00000000     0.00000000     0.00000000
     0.00000000     0.00000000     0.00000000
     0.00000000     0.00000000     0.00000000
     0.00000000     0.00000000     0.00000000
     0.00000000     0.00000000     0.00000000
     0.00000000     0.00000000     0.00000000
     0.00000000     0.00000000     0.00000000
     0.00000000     0.00000000     0.00000000
     0.00000000     0.00000000     0.00000000
     0.00000000     0.00000000     0.00000000
     0.00000000     0.00000000     0.00000000
     0.00000000     0.00000000     0.00000000
     0.00000000     0.00000000     0.00000000
     0.00000000     0.00000000     0.00000000
     6.93760998    12.80960225    21.30635140
    47.79778119   -13.07650606    19.04696587
    78.96831885    -8.39252744    15.04351780
    66.88768269    -3.14830734     3.17410481
    71.87350834   -12.09203794   -10.12732428
    29.65592876    15.82598903    -3.41105245
   128.41717419   -12.89007188   -41.66706935
  -162.38331446    20.24200198    37.49451547
     0.00000000     0.00000000     0.00000000
    17.07387896    16.94449422    28.87697720
    79.21267492   -26.47629814    35.25876317
    89.56058386    12.82215161    27.55286154
   106.98799746   -15.48953964    12.73281436
    84.62784839    22.93897353     9.82580352
    83.75488324   -28.94357947   -43.10243617
    82.29015872    40.72191432    26.86133887
    15.56388667   123.86374253   -61.46579546
     0.00000000     0.00000000     0.00000000