# vtk DataFile Version 3.0
Example VTK
ASCII
DATASET UNSTRUCTURED_GRID
POINTS  1313 float
 -0.459946640896E+02 -0.151038293781E+02  0.000000000000E+00
 -0.383232385453E+02 -0.209637350406E+02  0.000000000000E+00
 -0.306531043559E+02 -0.246273466531E+02  0.000000000000E+00
 -0.229943419890E+02 -0.269441417559E+02  0.000000000000E+00
 -0.153358766596E+02 -0.282349612897E+02  0.000000000000E+00
 -0.767684284873E+01 -0.286274378741E+02  0.000000000000E+00
 -0.101441715610E-01 -0.281521889718E+02  0.000000000000E+00
  0.485806477600E+01 -0.266469127900E+02  0.000000000000E+00
  0.971612955200E+01 -0.247938255800E+02  0.000000000000E+00
 -0.484231865446E+02 -0.120828036000E+02  0.000000000000E+00
 -0.383408950377E+02 -0.167638161700E+02  0.000000000000E+00
 -0.306859576207E+02 -0.196950406590E+02  0.000000000000E+00
 -0.230336264028E+02 -0.215495032578E+02  0.000000000000E+00
 -0.153839359505E+02 -0.225822902354E+02  0.000000000000E+00
 -0.773663699152E+01 -0.228972243603E+02  0.000000000000E+00
 -0.986695537268E-01 -0.225113800421E+02  0.000000000000E+00
  0.508263649473E+01 -0.217505794598E+02  0.000000000000E+00
  0.102638264203E+02 -0.206843804932E+02  0.000000000000E+00
 -0.492493073058E+02 -0.905917586045E+01  0.000000000000E+00
 -0.383611388528E+02 -0.125659550894E+02  0.000000000000E+00
 -0.307114517025E+02 -0.147646315282E+02  0.000000000000E+00
 -0.230667383020E+02 -0.161567652642E+02  0.000000000000E+00
 -0.154244382799E+02 -0.169312988538E+02  0.000000000000E+00
 -0.778511094792E+01 -0.171644265361E+02  0.000000000000E+00
 -0.144321663282E+00 -0.168739972300E+02  0.000000000000E+00
  0.534102473248E+01 -0.168447528829E+02  0.000000000000E+00
  0.108259681232E+02 -0.165777154747E+02  0.000000000000E+00
 -0.497363919386E+02 -0.604136391569E+01  0.000000000000E+00
 -0.383810624781E+02 -0.836807853602E+01  0.000000000000E+00
 -0.307327639897E+02 -0.983475250293E+01  0.000000000000E+00
 -0.230922701776E+02 -0.107629470876E+02  0.000000000000E+00
 -0.154548251022E+02 -0.112790874436E+02  0.000000000000E+00
 -0.781581203091E+01 -0.114336777803E+02  0.000000000000E+00
 -0.167745147979E+00 -0.112402477081E+02  0.000000000000E+00
  0.562034896381E+01 -0.119354933019E+02  0.000000000000E+00
  0.114083035054E+02 -0.124726062993E+02  0.000000000000E+00
 -0.500004130655E+02 -0.301098119690E+01  0.000000000000E+00
 -0.383960369833E+02 -0.417495087544E+01  0.000000000000E+00
 -0.307489090467E+02 -0.490444407048E+01  0.000000000000E+00
 -0.231099890939E+02 -0.536804312695E+01  0.000000000000E+00
 -0.154746099538E+02 -0.562601605144E+01  0.000000000000E+00
 -0.783497642980E+01 -0.570507092538E+01  0.000000000000E+00
 -0.179545426206E+00 -0.561199967657E+01  0.000000000000E+00
  0.592055047090E+01 -0.702940222377E+01  0.000000000000E+00
  0.120109856884E+02 -0.836928187181E+01  0.000000000000E+00
 -0.500890940718E+02  0.671849935355E-02  0.000000000000E+00
 -0.384046106343E+02  0.223066272177E-01  0.000000000000E+00
 -0.307575443172E+02  0.246385988431E-01  0.000000000000E+00
 -0.231191950086E+02  0.282685187284E-01  0.000000000000E+00
 -0.154847529928E+02  0.281903894282E-01  0.000000000000E+00
 -0.784614473853E+01  0.233992651242E-01  0.000000000000E+00
 -0.192141304277E+00  0.141044181602E-01  0.000000000000E+00
  0.621524895702E+01 -0.213595162824E+01  0.000000000000E+00
  0.126666666700E+02 -0.428227116300E+01  0.000000000000E+00
 -0.500099923223E+02  0.304395177122E+01  0.000000000000E+00
 -0.384062425033E+02  0.421381489340E+01  0.000000000000E+00
 -0.307587126509E+02  0.495568135752E+01  0.000000000000E+00
 -0.231195063407E+02  0.542539227041E+01  0.000000000000E+00
 -0.154852557662E+02  0.568431331986E+01  0.000000000000E+00
 -0.784893420911E+01  0.575421454058E+01  0.000000000000E+00
 -0.201491373239E+00  0.564399913449E+01  0.000000000000E+00
  0.565686320584E+01  0.362238750611E+01  0.000000000000E+00
  0.115210758936E+02  0.153875548134E+01  0.000000000000E+00
 -0.497523728209E+02  0.606110825985E+01  0.000000000000E+00
 -0.384028705233E+02  0.841238051819E+01  0.000000000000E+00
 -0.307530847656E+02  0.988596939552E+01  0.000000000000E+00
 -0.231115963469E+02  0.108235494331E+02  0.000000000000E+00
 -0.154752464880E+02  0.113422869711E+02  0.000000000000E+00
 -0.783988440982E+01  0.114887870835E+02  0.000000000000E+00
 -0.195823292253E+00  0.112773308579E+02  0.000000000000E+00
  0.512335073809E+01  0.939135948551E+01  0.000000000000E+00
  0.104477034050E+02  0.735142350351E+01  0.000000000000E+00
 -0.492821024445E+02  0.909409023788E+01  0.000000000000E+00
 -0.383945972149E+02  0.126071422496E+02  0.000000000000E+00
 -0.307440612758E+02  0.148183441264E+02  0.000000000000E+00
 -0.230971878104E+02  0.162203740292E+02  0.000000000000E+00
 -0.154533519797E+02  0.170013744025E+02  0.000000000000E+00
 -0.781494318986E+01  0.172277947201E+02  0.000000000000E+00
 -0.170696814157E+00  0.169116691274E+02  0.000000000000E+00
  0.461730095730E+01  0.151569681602E+02  0.000000000000E+00
  0.940666339393E+01  0.131694736292E+02  0.000000000000E+00
 -0.484615566206E+02  0.121153779899E+02  0.000000000000E+00
 -0.383900556115E+02  0.168082076838E+02  0.000000000000E+00
 -0.307340450179E+02  0.197494218435E+02  0.000000000000E+00
 -0.230799227587E+02  0.216149693118E+02  0.000000000000E+00
 -0.154219435775E+02  0.226581577197E+02  0.000000000000E+00
 -0.776654231587E+01  0.229722921739E+02  0.000000000000E+00
 -0.121013763300E+00  0.225487614096E+02  0.000000000000E+00
  0.413724835308E+01  0.209142147604E+02  0.000000000000E+00
  0.839787909388E+01  0.189831991463E+02  0.000000000000E+00
 -0.460511037141E+02  0.151452020073E+02  0.000000000000E+00
 -0.383806083762E+02  0.210055913703E+02  0.000000000000E+00
 -0.307253662000E+02  0.246809958908E+02  0.000000000000E+00
 -0.230634096644E+02  0.270067256618E+02  0.000000000000E+00
 -0.153989298459E+02  0.283085950138E+02  0.000000000000E+00
 -0.771184119271E+01  0.287070538715E+02  0.000000000000E+00
  0.976609275162E-03  0.281868070589E+02  0.000000000000E+00
  0.371063367600E+01  0.266469127900E+02  0.000000000000E+00
  0.742126735300E+01  0.247938255800E+02  0.000000000000E+00
 -0.466110164507E+02 -0.149136884431E+02  0.236129052436E+01
 -0.383229730721E+02 -0.207050609044E+02  0.327872067040E+01
 -0.306530208486E+02 -0.243236447985E+02  0.384957659834E+01
 -0.229954346093E+02 -0.266127154482E+02  0.421071961559E+01
 -0.153375258944E+02 -0.278880311795E+02  0.441086432616E+01
 -0.767841618022E+01 -0.282770336106E+02  0.447279565974E+01
 -0.989754575914E-02 -0.278064140530E+02  0.440123124193E+01
  0.487577938100E+01 -0.263526544000E+02  0.396427664200E+01
  0.974471668600E+01 -0.245950934400E+02  0.257295191300E+01
 -0.484171741681E+02 -0.120053856874E+02  0.262514883173E+01
 -0.383382939722E+02 -0.166491740543E+02  0.364536319001E+01
 -0.306853512903E+02 -0.195634978296E+02  0.428233155738E+01
 -0.230326536480E+02 -0.214055741807E+02  0.468506385168E+01
 -0.153821791790E+02 -0.224320068651E+02  0.490924125023E+01
 -0.773373638793E+01 -0.227450763051E+02  0.497801604411E+01
 -0.946098979701E-01 -0.223610484727E+02  0.489489178123E+01
  0.509484282373E+01 -0.216254940118E+02  0.442389443181E+01
  0.102754894491E+02 -0.206260566520E+02  0.296214709976E+01
 -0.491967483026E+02 -0.904100574689E+01  0.282983591975E+01
 -0.383595014482E+02 -0.125362064004E+02  0.392675879830E+01
 -0.307087117735E+02 -0.147311105692E+02  0.461415253468E+01
 -0.230640570060E+02 -0.161206309739E+02  0.504941753269E+01
 -0.154206241543E+02 -0.168936474289E+02  0.529127361043E+01
 -0.778022018448E+01 -0.171263492569E+02  0.536411052907E+01
 -0.138639980659E+00 -0.168358205368E+02  0.527366482675E+01
  0.534898063145E+01 -0.168164227781E+02  0.477458936197E+01
  0.108299960833E+02 -0.165811816416E+02  0.322768049156E+01
 -0.496631710392E+02 -0.604703167137E+01  0.296769482193E+01
 -0.383789797015E+02 -0.837581109472E+01  0.411630111692E+01
 -0.307293958690E+02 -0.984426636347E+01  0.483658772110E+01
 -0.230883947836E+02 -0.107739416507E+02  0.529350794033E+01
 -0.154500736177E+02 -0.112907620147E+02  0.554715120156E+01
 -0.781037873360E+01 -0.114453714714E+02  0.562293282383E+01
 -0.161930970894E+00 -0.112511906484E+02  0.552801386916E+01
  0.562586583408E+01 -0.119478684797E+02  0.500431109667E+01
  0.114106226637E+02 -0.124866738177E+02  0.335459547329E+01
 -0.499182755603E+02 -0.301908016795E+01  0.303447158633E+01
 -0.383935505091E+02 -0.418756340648E+01  0.420734563037E+01
 -0.307452811484E+02 -0.491959960615E+01  0.494323586303E+01
 -0.231055875586E+02 -0.538508623065E+01  0.541027302913E+01
 -0.154694041968E+02 -0.564392482979E+01  0.566978682152E+01
 -0.782938284146E+01 -0.572289953930E+01  0.574719651972E+01
 -0.174211450893E+00 -0.562901035420E+01  0.564989427438E+01
  0.592444346108E+01 -0.704487907972E+01  0.510520620970E+01
  0.120136269082E+02 -0.837223328718E+01  0.333463012615E+01
 -0.500061401491E+02  0.665779529921E-02  0.302690809987E+01
 -0.384020119888E+02  0.211445084829E-01  0.419618748357E+01
 -0.307538387267E+02  0.228152472105E-01  0.492995529320E+01
 -0.231146729956E+02  0.259708710660E-01  0.539581341308E+01
 -0.154793751894E+02  0.258179205818E-01  0.565501890780E+01
 -0.784038464954E+01  0.214497327132E-01  0.573248043380E+01
 -0.186653984517E+00  0.128587805050E-01  0.563522677294E+01
  0.621896802618E+01 -0.213655982448E+01  0.507403234070E+01
  0.126666666700E+02 -0.428227116300E+01  0.316666666700E+01
 -0.499267344689E+02  0.305301230292E+01  0.303466215037E+01
 -0.384037437112E+02  0.422355048703E+01  0.420765342793E+01
 -0.307548706427E+02  0.496714388247E+01  0.494351051318E+01
 -0.231148974518E+02  0.543770657929E+01  0.541114217719E+01
 -0.154796447909E+02  0.569723911646E+01  0.567148466003E+01
 -0.784262709973E+01  0.576779795192E+01  0.574929783031E+01
[...]
POINT_DATA      1313
VECTORS velocities float 
    -3.94664090    -1.03829378     0.00000000
    -3.23238545    -1.50384501     0.00000000
    -2.53104356    -1.71485633     0.00000000
    -1.94341989    -1.70500266     0.00000000
    -1.35876660    -1.57162000     0.00000000
    -0.76842849    -1.27437874     0.00000000
    -0.10144172    -0.74389682     0.00000000
     0.00000000     0.00000000     0.00000000
     0.00000000     0.00000000     0.00000000
    -4.23186545    -0.82803600     0.00000000
    -4.46357407    -1.29277559     0.00000000
    -4.53476095    -1.60043561     0.00000000
    -4.05465379    -2.05853547     0.00000000
    -3.47142530    -2.09746735     0.00000000
    -2.19235764    -2.45047187     0.00000000
    -1.21243093    -1.33041397     0.00000000
    -0.23471302    -0.69907656     0.00000000
     0.51200583     0.13692760     0.00000000
    -4.49307306    -0.59175860     0.00000000
    -5.70008423    -1.02456180     0.00000000
    -5.95293748    -1.66289073     0.00000000
    -6.45218201    -2.06349413     0.00000000
    -5.71712290    -3.44757809     0.00000000
    -4.60919831    -3.56346225     0.00000000
    -2.31528556    -3.34776581     0.00000000
    -0.58166012    -1.45712659     0.00000000
     0.29700068    -0.43818149     0.00000000
    -4.70331379    -0.41363916     0.00000000
    -6.24100011    -0.78915874     0.00000000
    -7.69619519    -1.30345838     0.00000000
    -7.88963514    -2.51824894     0.00000000
    -9.13841295    -3.46059938     0.00000000
    -7.95563878    -6.43219096     0.00000000
    -5.07499846    -5.75375567     0.00000000
    -2.19134307    -3.70945137     0.00000000
     0.07386945    -0.10619777     0.00000000
    -4.81229475    -0.10981197     0.00000000
    -7.15483908    -0.43800402     0.00000000
    -8.10811300    -1.06303780     0.00000000
   -10.37685004    -2.01202892     0.00000000
   -10.87985396    -4.07582333     0.00000000
   -14.29649336    -6.14718279     0.00000000
   -12.61972411   -12.56271736     0.00000000
    -4.23264402    -7.20564638     0.00000000
    -1.59103335     0.35811546     0.00000000
    -4.89094072     0.06718499     0.00000000
    -7.05508374     0.04286338     0.00000000
    -9.39305304    -0.58960730     0.00000000
   -10.49484008    -1.45753591     0.00000000
   -14.48890565    -3.21888067     0.00000000
   -16.68224778    -5.79455403     0.00000000
   -28.94643075   -10.52984778     0.00000000
   -21.36185926   -20.28104091     0.00000000
     0.00000000     0.00000000     0.00000000
    -4.90808732     0.43951771     0.00000000
    -7.28783275     0.35369061     0.00000000
    -8.90162497     0.20368324     0.00000000
   -11.52585200    -0.79007386     0.00000000
   -14.39736021    -1.51934100     0.00000000
   -21.02854638    -4.01133791     0.00000000
   -30.02808579    -4.97511500     0.00000000
   -50.98880014   -14.43665169     0.00000000
   -50.74533379   -17.09174972     0.00000000
    -4.86312261     0.61108260     0.00000000
    -6.64457243     0.96470064     0.00000000
    -9.17798584     0.58902688     0.00000000
    -9.86851490     0.66662041     0.00000000
   -14.84738322    -0.59875597     0.00000000
   -17.94185075     0.17535523     0.00000000
   -33.86199218    -1.26916743     0.00000000
   -45.27684961     1.66922493     0.00000000
   -79.31659289   -13.07843205     0.00000000
    -4.82102445     0.94090238     0.00000000
    -6.12273216     1.22094140     0.00000000
    -7.53632952     1.52396336     0.00000000
    -8.49668328     1.15047944     0.00000000
   -11.94825204     1.67212936     0.00000000
   -14.26428487     0.97206325     0.00000000
   -21.32565499     4.43402643     0.00000000
   -32.48749579     3.09024051     0.00000000
   -53.17308607    10.27800533     0.00000000
    -4.61556621     1.15377990     0.00000000
    -5.07085242     1.71434184     0.00000000
    -5.89371601     1.75405444     0.00000000
    -5.82363777     2.30135368     0.00000000
    -7.54468467     2.03161243     0.00000000
    -8.22521466     2.66871950     0.00000000
   -11.08089811     2.76210041     0.00000000
   -13.22999308     6.23523321     0.00000000
   -21.03536663     3.58419985     0.00000000
    -4.51103714     1.45202007     0.00000000
    -3.80608376     1.92240830     0.00000000
    -3.25366200     2.25134871     0.00000000
    -2.63409664     2.33084172     0.00000000
    -1.98929846     2.30795724     0.00000000
    -1.11841193     2.07053872     0.00000000
     0.00976609     1.09007769     0.00000000
     0.00000000     0.00000000     0.00000000
     0.00000000     0.00000000     0.00000000
    -3.92982461    -0.98363333     0.14773548
    -3.22973072    -1.47957244     0.22795313
    -2.53020849    -1.68876019     0.23837063
    -1.95434609    -1.68701918     0.22399333
    -1.37525894    -1.55916200     0.18528815
    -0.78416180    -1.27915901     0.14413406
    -0.09897546    -0.74299073     0.08895731
     0.00000000     0.00000000     0.00000000
     0.00000000     0.00000000     0.00000000
    -4.25455488    -0.86826117     0.17940543
    -4.42996350    -1.26618565     0.31785193
    -4.38375982    -1.62239151     0.35918109
    -4.01228964    -2.00418122     0.35389264
    -3.30228676    -2.09064914     0.31226805
    -2.19658238    -2.39490506     0.27787765
    -1.09695412    -1.30806655     0.07235635
    -0.43256276    -0.67862556    -0.09092718
     0.66828935     0.04938498    -0.00519872
    -4.49083373    -0.62631389     0.21698368
    -5.60195556    -1.01557876     0.39813079
    -5.79799513    -1.63690702     0.42459746
    -6.20704504    -2.02443204     0.47666149
    -5.53002059    -3.30746628     0.49347727
    -4.35500482    -3.43014183     0.42159815
    -2.30568886    -3.21660427     0.19839978
    -0.44954062    -1.30799306    -0.03750577
     0.22980875    -0.42819733    -0.08465409
    -4.68907779    -0.42378782     0.24446620
    -6.15821883    -0.79436038     0.44079653
    -7.42514230    -1.27349419     0.49304412
    -7.65430385    -2.44351642     0.57997989
    -8.66487279    -3.29797675     0.70561174
    -7.58862648    -6.07345596     0.83990071
    -4.66968790    -5.31899361     0.65065828
    -2.03184411    -3.50449369     0.28394784
     0.10745275    -0.14418967    -0.09059837
    -4.79141190    -0.10975820     0.26367238
    -7.02676026    -0.43508106     0.45513865
    -7.87714433    -1.04674311     0.53249620
    -9.99016007    -1.92133702     0.68072127
   -10.36297115    -3.89678049     0.92819433
   -13.35902121    -5.70651429     1.44934979
   -11.48481997   -11.61108268     2.04964385
    -3.73439570    -6.63643428     1.04554948
    -1.29307589     0.30552782     0.05359042
    -4.86956559     0.06657795     0.26908100
    -6.94406880     0.02964404     0.44745015
    -9.10002886    -0.55022758     0.55899256
   -10.14014596    -1.41986418     0.72483472
   -13.74101807    -3.01495979     1.14043461
   -15.53677732    -5.46101363     1.97948186
   -26.11473679    -9.46252826     3.89091518
   -18.76198759   -18.39514521     4.41173143
     0.00000000     0.00000000     0.00000000
    -4.87600099     0.44907955     0.26557802
    -7.35949654     0.35411210     0.44441272
    -8.23331294     0.21483513     0.58226760
   -11.58199391    -0.74787002     0.71983287
   -13.00639664    -1.37110672     1.31673847
   -20.34439157    -3.83808588     2.17739319
   -25.09522981    -4.30300053     5.13851306
   -45.72016324   -12.68566209     8.52421890
   -45.73497460   -16.15793232     8.60800551
    -4.83877035     0.61763400     0.27371427
    -6.85388145     0.92042453     0.38077552
    -8.20668037     0.62577920     0.59748168
   -10.34239298     0.62763752     0.63815487
   -12.89793601    -0.48262897     1.35557771
   -18.13063688     0.07063690     1.88055247
   -27.68596044    -1.20110720     4.90256058
   -40.66918193     1.75661368     9.13070216
   -71.59031605   -12.00459633    10.11408223
    -4.79408068     0.95176298     0.25905818
    -6.41976368     1.21043073     0.32971033
    -6.46714282     1.48313868     0.56652749
    -9.18439666     1.19259349     0.56228741
    -9.99535167     1.57252825     1.15985606
   -14.90455337     0.91341666     1.32699471
   -16.30209612     3.95197359     3.35211548
   -30.27259120     2.35129532     6.10784209
   -46.36626677    10.41185497     7.74367048
    -4.58209590     1.13704071     0.24944143
    -5.23119767     1.63998178     0.25616038
    -5.22054774     1.71931285     0.46589946
    -6.26416247     2.23288448     0.48497182
    -6.34265414     1.89771600     0.70509215
    -8.62651561     2.49046042     0.82778931
    -8.76575100     2.32160493     1.24740839
   -12.24060065     5.48861515     2.80112880
   -17.71820821     3.16588884     3.16995526
    -4.41932556     1.34727634     0.22026550
    -3.80678382     1.86552401     0.30397745
    -3.24208708     2.18774821     0.35580431
    -2.60819568     2.26167147     0.38187412
    -1.93650107     2.21819978     0.42944167
    -1.03956246     1.91406931     0.40235375
     0.01179424     0.96963634     0.25561388
     0.00000000     0.00000000     0.00000000
     0.00000000     0.00000000     0.00000000
    -3.90978803    -0.90638214     0.30796680
    -3.26118356    -1.46264399     0.48045198
    -2.56453128    -1.67161192     0.50863152
    -2.00424280    -1.69364154     0.47420496
    -1.41802796    -1.58534594     0.40889997
    -0.82870907    -1.31235528     0.32285237
    -0.10966712    -0.78450750     0.19893608
     0.00000000     0.00000000     0.00000000
     0.00000000     0.00000000     0.00000000
    -4.21847763    -0.91920758     0.40894863
    -4.26021151    -1.19350935     0.58973125
    -4.21404658    -1.63634042     0.71378901
    -3.70219170    -1.86844633     0.69107989
    -3.18562313    -2.07342277     0.61582904
    -1.93453478    -2.21954836     0.52580404
    -1.16431308    -1.36528570     0.20239231
    -0.47271943    -0.51265148    -0.10734639
     0.41359830    -0.01552564    -0.14639313
    -4.45981399    -0.66101852     0.47159897
    -5.33260135    -0.97266065     0.69639257
    -5.38771592    -1.55363580     0.86163327
    -5.70101900    -1.91680951     0.88618718
    -4.96278832    -2.91686096     0.93668179
    -3.98742982    -3.18421757     0.76157950
    -1.93739826    -2.79013305     0.41636194
    -0.52036965    -1.12815346    -0.05344676
     0.32166828    -0.53646259    -0.16098650
    -4.64809323    -0.43957276     0.50370581
    -5.83941850    -0.74697329     0.81410208
    -6.79523839    -1.21237935     0.93687455
    -6.89639039    -2.18006719     1.11170097
    -7.65350075    -2.90949285     1.24475713
    -6.50053415    -5.06281992     1.46081611
    -4.22962481    -4.53244726     1.07038228
    -1.51724951    -2.95923756     0.35910558
     0.05210848     0.04070320    -0.17783520
    -4.73933931    -0.09976917     0.53002486
    -6.60545440    -0.43651435     0.85162922
    -7.25708591    -0.93384942     1.01387359
    -8.86269073    -1.72179345     1.25226884
    -9.00618150    -3.30827536     1.62982403
   -11.00291723    -4.63541834     2.34579268
    -8.71084428    -9.04167360     3.11291014
    -2.62503445    -5.30135115     1.55516025
    -0.67511288    -0.07787400     0.12489465
    -4.81314255     0.06499934     0.53858775
    -6.55762858     0.03826923     0.86287683
    -8.28818121    -0.51025497     1.03741792
    -9.01476913    -1.20648075     1.35482202
   -11.78762801    -2.55795998     1.94132949
   -12.33983236    -4.43404652     3.17161206
   -19.50481734    -6.89207984     5.71830716
   -13.15509132   -13.90277372     5.96635248
     0.00000000     0.00000000     0.00000000
    -4.82885933     0.45271900     0.53978151
    -6.71691589     0.31389364     0.86940892
    -7.86211507     0.22466246     1.00173944
    -9.77215992    -0.60610801     1.48287096
   -11.53180872    -1.16028233     1.96403920
   -15.56610792    -3.10798081     3.86016819
   -17.60179857    -3.42306624     6.69491797
   -29.23343454    -8.18378762    10.99943676
   -33.35559368   -12.80290574    14.20777385
    -4.79373631     0.59564997     0.51931197
    -6.18045157     0.88011055     0.85197325
    -7.98653939     0.55616902     0.88505984
    -8.44336296     0.68438112     1.58818354
   -11.78927385    -0.47555849     1.66888804
   -13.11063214     0.08139853     3.99822636
   -21.93738295    -1.62730331     5.62307675
   -21.10115328     2.01169385    11.78520249
   -53.84709490    -9.24953334    18.22586712
    -4.73576256     0.95138518     0.52606997
    -5.64215688     1.04393760     0.74381623
    -6.61454005     1.43349670     0.85403476
    -7.28445106     1.12114113     1.42141620
    -9.59749611     1.35272561     1.41718370
   -10.65346575     0.59671513     3.02992037
   -13.72470797     2.61609098     3.94843775
   -16.37784033     0.96902165     7.10092353
   -34.39876301     8.79980944    13.75597022
    -4.45951393     1.07736432     0.46364460
    -4.71197070     1.52756060     0.69323137
    -5.42953561     1.58951133     0.72221950
    -5.00996522     2.08251811     1.19276800
    -6.30204910     1.67924715     1.07002880
    -6.22108011     1.97207850     1.75833213
    -8.23164560     1.54828744     1.96957683
    -6.76621006     4.08137834     2.73500046
   -12.03190444     1.71533881     5.01695707
    -4.35769862     1.22594671     0.37359068
    -3.80541159     1.75902653     0.55681328
    -3.23217945     2.06986942     0.65941092
    -2.56184263     2.13572166     0.72269516
    -1.85800215     2.05852464     0.77269500
    -0.97920279     1.72436560     0.69452801
    -0.00488640     0.85621325     0.40325337
     0.00000000     0.00000000     0.00000000
     0.00000000     0.00000000     0.00000000
    -3.90270369    -0.82641389     0.46350379
    -3.29636865    -1.40266721     0.73137325
    -2.61304703    -1.61941979     0.77789927
    -2.04640760    -1.66378963     0.74054713
    -1.45366872    -1.57274071     0.65702358
    -0.85334019    -1.30290758     0.53317499
    -0.11692335    -0.79461794     0.33079106
     0.00000000     0.00000000     0.00000000
     0.00000000     0.00000000     0.00000000
    -4.15344709    -0.81731756     0.61068885
    -4.06058135    -1.14543959     0.85388124
    -3.81487146    -1.56015182     1.04836822
    -3.38722776    -1.71052555     0.99578477
    -2.76694193    -1.91246571     0.91409876
    -1.77946284    -1.98530675     0.74778861
    -0.82408449    -1.24846763     0.33168934
    -0.60030786    -0.46476632     0.05593922
     0.05236219    -0.05800393    -0.24999244
    -4.35421012    -0.63669893     0.71427249
    -4.82005303    -0.89451255     0.95443011
    -4.79269517    -1.43029520     1.24955198
    -4.82196169    -1.67310891     1.24314354
    -4.16690518    -2.40778256     1.25328192
    -3.24431408    -2.60848569     1.04956142
    -1.63506388    -2.34688342     0.59121733
    -0.33087688    -0.75494643    -0.06092185
     0.31783587    -0.43648180    -0.07918945
    -4.53967915    -0.45792356     0.79452312
    -5.25647025    -0.64365916     1.07797620
    -5.77987522    -1.08647589     1.36545346
    -5.77912831    -1.82223655     1.49032535
    -6.00501885    -2.22751968     1.56936691
    -5.05964195    -3.78602870     1.75401174
    -3.19208246    -3.21677040     1.13546304
    -1.11643592    -2.30660774     0.35855526
    -0.04588640    -0.05594450    -0.31916717
    -4.63027835    -0.11171017     0.80161694
    -5.91515703    -0.38205347     1.17043302
    -6.09813015    -0.80753872     1.42199165
    -7.24079283    -1.33733815     1.66358491
    -6.88957614    -2.54495020     1.95965483
    -7.86916836    -3.08348636     2.50710120
    -5.63283793    -5.97248101     2.98903073
    -1.61579587    -3.36328488     1.25595252
     0.02362239    -0.18810173     0.11259780
    -4.68613378     0.06327948     0.80142681
    -5.81929387     0.02645918     1.17986866
    -7.01685622    -0.38459002     1.46698812
    -7.18770340    -0.96901365     1.73487764
    -8.96699660    -1.78629000     2.30702806
    -8.29087207    -3.18528533     3.21406634
   -11.54499720    -3.73255379     4.93962968
    -7.07896594    -8.76711882     5.10769990
     0.00000000     0.00000000     0.00000000
    -4.70424947     0.39983928     0.83736714
    -6.15211336     0.29203673     1.16060807
    -6.22694966     0.21795135     1.51398364
    -8.20202836    -0.38725400     1.69920166
    -8.07492148    -0.84513465     2.60126582
   -11.10291956    -2.12149125     3.39642834
    -7.54644716    -2.29717944     6.16124395
   -16.93880334    -4.44378470     7.72731732
   -17.62072369    -6.25301562    11.77022387
    -4.67106753     0.56799221     0.84172541
    -5.64872355     0.76006888     1.02501828
    -6.40984920     0.56704080     1.54362079
    -7.06306261     0.60462128     1.60314428
    -8.48800513    -0.29071284     2.60793023
    -8.99765106    -0.04360363     3.10568111
   -11.89725101    -1.51447387     6.05382304
   -11.31169266     0.55388622     6.45462651
   -23.99544795    -4.38701399    17.59831632
    -4.60449204     0.87983420     0.80072374
    -5.39405920     0.94368285     0.96422164
    -5.12484078     1.34285891     1.52161780
    -6.53584024     0.88020290     1.36994648
    -6.56093190     1.31078592     2.51316768
    -8.36471386    -0.06290532     2.14040230
    -5.48688731     1.89123210     5.01009299
   -13.05797951    -1.21340118     3.65500761
   -13.46639084     6.33430845    11.89074809
    -4.36828540     0.96931379     0.63078785
    -4.64949664     1.39003467     0.87885205
    -4.38240972     1.48021748     1.29057456
    -4.86138085     1.78651858     1.30424097
    -4.24366140     1.43397374     1.76865670
    -5.49676259     1.48626567     1.72806942
    -3.50925668     0.71701888     2.16461760
    -6.04618551     2.62125492     2.80682121
    -5.44515793    -0.22381276     3.01964738
    -4.30169907     1.10762972     0.51592643
    -3.79526926     1.61696737     0.80460978
    -3.20437677     1.88632223     0.98349392
    -2.52394653     1.93805473     1.07563379
    -1.79179058     1.84348167     1.10935632
    -0.94933700     1.51928772     0.95681298
    -0.00229931     0.76224309     0.53340619
     0.00000000     0.00000000     0.00000000
     0.00000000     0.00000000     0.00000000
    -3.91226315    -0.73413298     0.60982884
    -3.33311749    -1.29382141     0.96641496
    -2.66251832    -1.51823018     1.05055202
    -2.08131254    -1.58352282     1.01981018
    -1.47396985    -1.50898033     0.92092769
    -0.86549188    -1.24692118     0.74746825
    -0.12322935    -0.77354031     0.46613229
     0.00000000     0.00000000     0.00000000
     0.00000000     0.00000000     0.00000000
    -4.07010118    -0.67422242     0.75677060
    -3.74541197    -1.05516242     1.13127108
    -3.38978231    -1.39325281     1.30189413
    -2.75617558    -1.51139872     1.32535812
    -2.38752267    -1.60378932     1.14553201
    -1.22929609    -1.58989417     0.99041426
    -0.79574865    -1.03635102     0.49081793
    -0.02782509    -0.29782298     0.09087360
    -0.40984020    -0.07428464    -0.15005306
    -4.13330283    -0.51916244     0.86313278
    -4.19883704    -0.84626999     1.25833267
    -3.91547040    -1.17360656     1.52257214
    -3.67176447    -1.38951995     1.53615346
    -2.97016366    -1.70774832     1.48090172
    -2.34663137    -1.83324774     1.18947209
    -0.79263819    -1.60864732     0.79514188
    -0.47593510    -0.36102465    -0.11514877
     0.51944906    -0.32981728    -0.06675704
    -4.30297663    -0.43240361     1.02566673