# vtk DataFile Version 3.0
Example VTK
ASCII
DATASET UNSTRUCTURED_GRID
POINTS  1313 float
 -0.474845289599E+02 -0.155736868298E+02  0.000000000000E+00
 -0.394924677345E+02 -0.216009144980E+02  0.000000000000E+00
 -0.315420420967E+02 -0.253328628579E+02  0.000000000000E+00
 -0.236510300816E+02 -0.276180839666E+02  0.000000000000E+00
 -0.157906346536E+02 -0.288338696941E+02  0.000000000000E+00
 -0.792943798635E+01 -0.290959480961E+02  0.000000000000E+00
 -0.466348717164E-01 -0.284155768089E+02  0.000000000000E+00
  0.485806477600E+01 -0.266469127900E+02  0.000000000000E+00
  0.971612955200E+01 -0.247938255800E+02  0.000000000000E+00
 -0.500330092267E+02 -0.124582796359E+02  0.000000000000E+00
 -0.396182562005E+02 -0.172453296459E+02  0.000000000000E+00
 -0.317405359406E+02 -0.202284011678E+02  0.000000000000E+00
 -0.238878867758E+02 -0.220627828432E+02  0.000000000000E+00
 -0.160525712477E+02 -0.230362475673E+02  0.000000000000E+00
 -0.823487226920E+01 -0.232528078696E+02  0.000000000000E+00
 -0.458735197815E+00 -0.226890700181E+02  0.000000000000E+00
  0.482023367415E+01 -0.217699492723E+02  0.000000000000E+00
  0.101055902350E+02 -0.206577138315E+02  0.000000000000E+00
 -0.509870544743E+02 -0.933923215384E+01  0.000000000000E+00
 -0.397462904451E+02 -0.128935248071E+02  0.000000000000E+00
 -0.318994212667E+02 -0.151348918350E+02  0.000000000000E+00
 -0.240801357184E+02 -0.165178524637E+02  0.000000000000E+00
 -0.162737272330E+02 -0.172499427766E+02  0.000000000000E+00
 -0.848138312213E+01 -0.174011508160E+02  0.000000000000E+00
 -0.685168398373E+00 -0.169742242261E+02  0.000000000000E+00
  0.494032462739E+01 -0.168458885854E+02  0.000000000000E+00
  0.105633076748E+02 -0.165354434745E+02  0.000000000000E+00
 -0.515562511326E+02 -0.621726623953E+01  0.000000000000E+00
 -0.398670556148E+02 -0.855187110905E+01  0.000000000000E+00
 -0.320287463207E+02 -0.100438394670E+02  0.000000000000E+00
 -0.242266071091E+02 -0.109703337869E+02  0.000000000000E+00
 -0.164379027360E+02 -0.114597080688E+02  0.000000000000E+00
 -0.864134423729E+01 -0.115588711824E+02  0.000000000000E+00
 -0.804336940998E+00 -0.112753993020E+02  0.000000000000E+00
  0.515767821390E+01 -0.119074179618E+02  0.000000000000E+00
  0.111166099153E+02 -0.124197244107E+02  0.000000000000E+00
 -0.518792323725E+02 -0.308159325884E+01  0.000000000000E+00
 -0.399532096251E+02 -0.421752557561E+01  0.000000000000E+00
 -0.321226775183E+02 -0.495665296529E+01  0.000000000000E+00
 -0.243266698040E+02 -0.541824183424E+01  0.000000000000E+00
 -0.165441695535E+02 -0.566640779767E+01  0.000000000000E+00
 -0.874094960592E+01 -0.572641993852E+01  0.000000000000E+00
 -0.866127366526E+00 -0.560228550274E+01  0.000000000000E+00
  0.547348936166E+01 -0.698449952797E+01  0.000000000000E+00
  0.117661994560E+02 -0.831262609717E+01  0.000000000000E+00
 -0.519952794290E+02  0.667170340766E-01  0.000000000000E+00
 -0.400005975063E+02  0.113792197086E+00  0.000000000000E+00
 -0.321708382223E+02  0.129337506136E+00  0.000000000000E+00
 -0.243759900739E+02  0.138076179258E+00  0.000000000000E+00
 -0.165961501373E+02  0.131886380064E+00  0.000000000000E+00
 -0.879565883777E+01  0.105139191055E+00  0.000000000000E+00
 -0.925937298902E+00  0.610046526629E-01  0.000000000000E+00
  0.576453067060E+01 -0.211950086254E+01  0.000000000000E+00
  0.126666666700E+02 -0.428227116300E+01  0.000000000000E+00
 -0.519210678181E+02  0.322363417408E+01  0.000000000000E+00
 -0.400062873691E+02  0.444485741877E+01  0.000000000000E+00
 -0.321714365152E+02  0.521739281465E+01  0.000000000000E+00
 -0.243722630378E+02  0.569934295492E+01  0.000000000000E+00
 -0.165931243486E+02  0.593816144207E+01  0.000000000000E+00
 -0.880311976359E+01  0.594709528240E+01  0.000000000000E+00
 -0.963868747493E+00  0.574167710309E+01  0.000000000000E+00
  0.508564581769E+01  0.363899708003E+01  0.000000000000E+00
  0.111607013984E+02  0.155652505823E+01  0.000000000000E+00
 -0.516467453727E+02  0.637333339048E+01  0.000000000000E+00
 -0.399756967438E+02  0.878117540187E+01  0.000000000000E+00
 -0.321281396498E+02  0.103091102834E+02  0.000000000000E+00
 -0.243177653465E+02  0.112641775139E+02  0.000000000000E+00
 -0.165308761864E+02  0.117529719246E+02  0.000000000000E+00
 -0.874732044017E+01  0.118055084031E+02  0.000000000000E+00
 -0.927624516934E+00  0.114383326920E+02  0.000000000000E+00
  0.452373356412E+01  0.944856067100E+01  0.000000000000E+00
  0.999901476341E+01  0.735970312430E+01  0.000000000000E+00
 -0.511393068688E+02  0.951434863336E+01  0.000000000000E+00
 -0.399143379498E+02  0.131259786709E+02  0.000000000000E+00
 -0.320546331002E+02  0.154052923306E+02  0.000000000000E+00
 -0.242206952173E+02  0.168258164462E+02  0.000000000000E+00
 -0.164030763642E+02  0.175725547522E+02  0.000000000000E+00
 -0.860998348325E+01  0.176832314844E+02  0.000000000000E+00
 -0.797097771419E+00  0.171406243024E+02  0.000000000000E+00
  0.409250382531E+01  0.152438470433E+02  0.000000000000E+00
  0.899049287121E+01  0.131881848572E+02  0.000000000000E+00
 -0.502420588278E+02  0.126558705698E+02  0.000000000000E+00
 -0.398525570354E+02  0.174836137761E+02  0.000000000000E+00
 -0.319647663478E+02  0.205012792067E+02  0.000000000000E+00
 -0.240953741174E+02  0.223796324363E+02  0.000000000000E+00
 -0.162230312696E+02  0.233833625577E+02  0.000000000000E+00
 -0.835712184809E+01  0.235830281027E+02  0.000000000000E+00
 -0.549725269524E+00  0.228564431154E+02  0.000000000000E+00
  0.378120687247E+01  0.210028819409E+02  0.000000000000E+00
  0.813249675358E+01  0.189972685668E+02  0.000000000000E+00
 -0.477423163385E+02  0.157919769448E+02  0.000000000000E+00
 -0.397689604217E+02  0.218417474481E+02  0.000000000000E+00
 -0.318586916064E+02  0.256004331766E+02  0.000000000000E+00
 -0.239717981312E+02  0.279251145229E+02  0.000000000000E+00
 -0.160536466765E+02  0.291707794988E+02  0.000000000000E+00
 -0.808587574059E+01  0.294430989098E+02  0.000000000000E+00
  0.210862985913E-01  0.285603280605E+02  0.000000000000E+00
  0.371063367600E+01  0.266469127900E+02  0.000000000000E+00
  0.742126735300E+01  0.247938255800E+02  0.000000000000E+00
 -0.480934687862E+02 -0.153632180585E+02  0.242784572866E+01
 -0.394881154660E+02 -0.213338566685E+02  0.337813492047E+01
 -0.315381541686E+02 -0.250188869959E+02  0.395137200363E+01
 -0.236533040994E+02 -0.272792099045E+02  0.430315830530E+01
 -0.157960399974E+02 -0.284828412380E+02  0.448423425367E+01
 -0.793343788058E+01 -0.287486095398E+02  0.452782509564E+01
 -0.421146818120E-01 -0.280706710487E+02  0.443245134100E+01
  0.487577938100E+01 -0.263526544000E+02  0.396427664200E+01
  0.974471668600E+01 -0.245950934400E+02  0.257295191300E+01
 -0.500350247185E+02 -0.123988616785E+02  0.270629265431E+01
 -0.396029475289E+02 -0.171226839190E+02  0.376387792493E+01
 -0.317352230782E+02 -0.201009194761E+02  0.441258483557E+01
 -0.238805950377E+02 -0.219230816696E+02  0.480973085065E+01
 -0.160420853653E+02 -0.228937089348E+02  0.502055430656E+01
 -0.821970360205E+01 -0.231103165982E+02  0.506874420671E+01
 -0.439362166994E+00 -0.225464169007E+02  0.494838730139E+01
  0.484976342991E+01 -0.216450170675E+02  0.443946235537E+01
  0.101291731006E+02 -0.206012347056E+02  0.296713194632E+01
 -0.509335043534E+02 -0.933792384735E+01  0.292852187420E+01
 -0.397350360022E+02 -0.128636045374E+02  0.405615063632E+01
 -0.318813190733E+02 -0.151076881565E+02  0.475980668887E+01
 -0.240630392325E+02 -0.164905120844E+02  0.519515613577E+01
 -0.162518945761E+02 -0.172224340180E+02  0.542345981523E+01
 -0.845560562514E+01 -0.173737880443E+02  0.546972372060E+01
 -0.656765083820E+00 -0.169441818233E+02  0.533623758937E+01
  0.497178573236E+01 -0.168210143307E+02  0.480114510741E+01
  0.105837582484E+02 -0.165416284604E+02  0.323750344798E+01
 -0.514769444769E+02 -0.622897353650E+01  0.308004071874E+01
 -0.398533268730E+02 -0.856416850155E+01  0.425435129375E+01
 -0.320070726952E+02 -0.100603716435E+02  0.499020054185E+01
 -0.242028352289E+02 -0.109910683932E+02  0.544942677228E+01
 -0.164110547724E+02 -0.114819218173E+02  0.568914229965E+01
 -0.861234665633E+01 -0.115805539326E+02  0.573499723059E+01
 -0.774843726368E+00 -0.112941250675E+02  0.559471925112E+01
  0.518697528887E+01 -0.119253845155E+02  0.503487512375E+01
  0.111345530790E+02 -0.124371129736E+02  0.336554811787E+01
 -0.517869067367E+02 -0.309027164360E+01  0.315212279964E+01
 -0.399379568813E+02 -0.423552626358E+01  0.435101902943E+01
 -0.320993529762E+02 -0.497887133601E+01  0.510014343973E+01
 -0.243001447137E+02 -0.544450095457E+01  0.556929012114E+01
 -0.165148144396E+02 -0.569392227712E+01  0.581519193981E+01
 -0.871090731829E+01 -0.575263349551E+01  0.586184258013E+01
 -0.838513033598E+00 -0.562560826013E+01  0.571728097236E+01
  0.549616789429E+01 -0.700532034851E+01  0.513340082844E+01
  0.117797599063E+02 -0.831878814203E+01  0.334191181440E+01
 -0.519032993132E+02  0.689568829892E-01  0.314917449591E+01
 -0.399836912568E+02  0.107370184924E+00  0.433980649641E+01
 -0.321475346152E+02  0.121102457586E+00  0.508685291242E+01
 -0.243488049348E+02  0.127734368561E+00  0.555441201854E+01
 -0.165659731105E+02  0.121378485364E+00  0.580107312030E+01
 -0.876480482233E+01  0.965395844637E-01  0.584865224555E+01
 -0.897544419277E+00  0.555513335845E-01  0.570378259496E+01
  0.578344503003E+01 -0.212218154317E+01  0.509872535663E+01
  0.126666666700E+02 -0.428227116300E+01  0.316666666700E+01
 -0.518271822416E+02  0.323067534406E+01  0.315738485877E+01
 -0.399896315488E+02  0.445061759675E+01  0.435217994859E+01
 -0.321471018752E+02  0.522229951481E+01  0.510198528741E+01
 -0.243445052531E+02  0.570453591424E+01  0.557301448980E+01
 -0.165618135551E+02  0.594358408348E+01  0.582187351484E+01
 -0.876971632742E+01  0.595446963132E+01  0.586984416947E+01
[...]
POINT_DATA      1313
VECTORS velocities float 
     0.21241578     0.05501470     0.00000000
     0.22363579     0.09212359     0.00000000
     0.19490840     0.09926210     0.00000000
     0.18834207     0.11312053     0.00000000
     0.14319231     0.11020234     0.00000000
     0.10910416     0.10497319     0.00000000
     0.02324413     0.07480349     0.00000000
     0.00000000     0.00000000     0.00000000
     0.00000000     0.00000000     0.00000000
     0.22920354     0.06177670     0.00000000
     0.28944102     0.04834895     0.00000000
     0.29730294     0.10175802     0.00000000
     0.43320429     0.03574146     0.00000000
     0.48906881     0.12014997     0.00000000
     0.84713224     0.00240112     0.00000000
     1.28113027     0.28161033     0.00000000
     2.40242988     0.27467129     0.00000000
     3.80651596     1.12625688     0.00000000
     0.22246636     0.03530447     0.00000000
     0.34546987     0.04635369     0.00000000
     0.39601024     0.00777298     0.00000000
     0.58845960     0.03853207     0.00000000
     0.73705905    -0.08322404     0.00000000
     1.23650985    -0.06884900     0.00000000
     2.40539630    -0.22847625     0.00000000
     4.08630920     0.07767340     0.00000000
     7.94039312    -0.30095504     0.00000000
     0.24064203     0.04860817     0.00000000
     0.38196567    -0.01192456     0.00000000
     0.39662827     0.00549987     0.00000000
     0.69785982    -0.09541868     0.00000000
     0.78583363    -0.14053207     0.00000000
     1.40986841    -0.38789306     0.00000000
     2.36540551    -0.75968355     0.00000000
     4.92982998    -1.05914265     0.00000000
     7.85315551    -1.79974300     0.00000000
     0.23828092    -0.00118256     0.00000000
     0.37398267     0.00156050     0.00000000
     0.48252344    -0.08589537     0.00000000
     0.62065212    -0.11539127     0.00000000
     0.83077426    -0.30576054     0.00000000
     1.16377603    -0.50157394     0.00000000
     1.58601956    -1.02292796     0.00000000
     2.98223025    -1.84499053     0.00000000
     5.80756386    -2.10642903     0.00000000
     0.24403436     0.03297111     0.00000000
     0.38365603    -0.07077614     0.00000000
     0.44134326    -0.07472351     0.00000000
     0.60734863    -0.20608791     0.00000000
     0.66927480    -0.31831701     0.00000000
     0.87693052    -0.59021276     0.00000000
     1.00457134    -0.84866169     0.00000000
     1.16361385    -1.55584534     0.00000000
     0.00000000     0.00000000     0.00000000
     0.24375130    -0.02854082     0.00000000
     0.34865560    -0.04952262     0.00000000
     0.45158243    -0.13428853     0.00000000
     0.46911687    -0.19963673     0.00000000
     0.59298218    -0.34210604     0.00000000
     0.51836009    -0.49223837     0.00000000
     0.37942326    -0.62659296     0.00000000
     0.07876904    -0.60384728     0.00000000
     0.23194134     0.12070342     0.00000000
     0.23140483    -0.02478777     0.00000000
     0.35452197    -0.08705574     0.00000000
     0.36600354    -0.12662151     0.00000000
     0.43806442    -0.20672474     0.00000000
     0.37747154    -0.30065890     0.00000000
     0.37763912    -0.36199518     0.00000000
     0.21184244    -0.38971290     0.00000000
     0.09836393    -0.26478078     0.00000000
    -0.05987914    -0.20327649     0.00000000
     0.23610432    -0.06454380     0.00000000
     0.29122376    -0.08604787     0.00000000
     0.33086952    -0.13552378     0.00000000
     0.30347027    -0.18935684     0.00000000
     0.31563903    -0.22701496     0.00000000
     0.20338664    -0.27538840     0.00000000
     0.08004508    -0.18442624     0.00000000
     0.01010408    -0.16853031     0.00000000
    -0.04701412    -0.05077621     0.00000000
     0.21243028    -0.07012608     0.00000000
     0.26433744    -0.10612034     0.00000000
     0.24452943    -0.12445442     0.00000000
     0.24779829    -0.15494526     0.00000000
     0.17865716    -0.18735999     0.00000000
     0.14639717    -0.15514351     0.00000000
     0.09572206    -0.14225811     0.00000000
     0.04629790    -0.07213239     0.00000000
    -0.04179100    -0.03715530     0.00000000
     0.21660723    -0.09776642     0.00000000
     0.18194256    -0.11114293     0.00000000
     0.17057413    -0.12799240     0.00000000
     0.13732528    -0.12735095     0.00000000
     0.10894855    -0.12419182     0.00000000
     0.05823122    -0.10967232     0.00000000
    -0.00626588    -0.05654601     0.00000000
     0.00000000     0.00000000     0.00000000
     0.00000000     0.00000000     0.00000000
     0.20454310     0.05961263    -0.00738761
     0.21424016     0.09551899    -0.01654165
     0.18381803     0.10076797    -0.01928458
     0.17620751     0.11284679    -0.02069828
     0.13233290     0.10815476    -0.01960835
     0.09902090     0.10449760    -0.01797782
     0.01145566     0.07271013    -0.01243365
     0.00000000     0.00000000     0.00000000
     0.00000000     0.00000000     0.00000000
     0.23354862     0.06991250    -0.01026121
     0.25797245     0.04478319    -0.02143089
     0.33783060     0.10704421    -0.02326825
     0.35160856     0.02782499    -0.03312653
     0.53613328     0.12794295    -0.05464685
     0.70169762    -0.00815305    -0.08888110
     1.19156069     0.24318314    -0.25988855
     1.86945446     0.16936950    -0.48991835
     3.29064044     1.08994126    -0.80791523
     0.22234722     0.04088907    -0.01165280
     0.29458566     0.04344313    -0.02817005
     0.47621766     0.01334474    -0.02294830
     0.45171640     0.03802707    -0.05385080
     0.81869892    -0.07455978    -0.07236925
     1.01213904    -0.05479054    -0.14967913
     2.13646855    -0.24631418    -0.49370938
     3.09420587     0.07286490    -1.03623965
     7.13655579    -0.17723796    -1.34855757
     0.24079949     0.05367645    -0.01238718
     0.34027713    -0.00985618    -0.02833387
     0.45353864     0.00840631    -0.02667272
     0.58242344    -0.08974170    -0.05903874
     0.84702896    -0.12288868    -0.08550694
     1.19636975    -0.37185197    -0.16959199
     2.07286105    -0.66234843    -0.54436139
     3.85712069    -0.87821789    -1.21834803
     7.08740344    -1.66137001    -1.49640487
     0.23833270     0.00392275    -0.01542748
     0.34083471    -0.00016917    -0.02618541
     0.52596735    -0.08004459    -0.02936090
     0.52737410    -0.10715389    -0.05801681
     0.87472058    -0.28889019    -0.08061570
     0.98868915    -0.46717326    -0.16312838
     1.40923475    -0.90161911    -0.39012159
     2.29384588    -1.53749247    -0.81929094
     5.09704856    -1.95058740    -1.26080466
     0.24053531     0.03299513    -0.01615994
     0.38380219    -0.06495545    -0.02538190
     0.42097785    -0.07533266    -0.03102384
     0.59929635    -0.19114925    -0.04842476
     0.62739057    -0.30686912    -0.07395306
     0.83472335    -0.54827650    -0.11644538
     0.87811321    -0.76538812    -0.21141101
     1.01728016    -1.37429114    -0.34576945
     0.00000000     0.00000000     0.00000000
     0.24158707    -0.02874272    -0.02004372
     0.33936838    -0.04865050    -0.02075787
     0.44546366    -0.12682745    -0.03215933
     0.45012816    -0.19547721    -0.04117014
     0.57438933    -0.31856197    -0.05776127
     0.48334642    -0.47178547    -0.07697031
     0.35003281    -0.56669080    -0.08336756
     0.05990978    -0.57336266    -0.06115180
     0.20969402     0.12153704    -0.01082292
     0.23069588    -0.01802643    -0.02141644
     0.34813663    -0.08556517    -0.01948083
     0.35794464    -0.12515757    -0.02932391
     0.42735632    -0.19410759    -0.03517102
     0.36044241    -0.29371095    -0.04226135
     0.36552258    -0.33251646    -0.04368901
     0.20518022    -0.37863702    -0.02847121
     0.09385965    -0.23914241    -0.01227959
    -0.06989305    -0.20101015    -0.00209180
     0.23421939    -0.05751054    -0.01722735
     0.28376922    -0.08660422    -0.01831310
     0.32572445    -0.12980816    -0.02657479
     0.29387055    -0.18727025    -0.02847906
     0.30831969    -0.21189416    -0.03106069
     0.19546516    -0.27220647    -0.02659036
     0.07979609    -0.16631531    -0.00721314
     0.01778979    -0.16507571     0.00546286
    -0.03550210    -0.04112065     0.01867824
     0.20970613    -0.06193969    -0.01432797
     0.25675304    -0.10320888    -0.01675292
     0.24724444    -0.12323168    -0.02215065
     0.23642193    -0.14773492    -0.02305659
     0.17973635    -0.18620603    -0.02386136
     0.13778491    -0.14073103    -0.01402804
     0.09886113    -0.14280118    -0.00966491
     0.04101985    -0.06464994     0.00605493
    -0.03714637    -0.03850245     0.00995825
     0.21763741    -0.08558280    -0.01343701
     0.19073778    -0.10457490    -0.01585404
     0.17896829    -0.12203694    -0.01801639
     0.14593910    -0.12326880    -0.01820811
     0.11538815    -0.12035791    -0.02064864
     0.06338605    -0.10198049    -0.02004981
     0.00298881    -0.05349943    -0.01085341
     0.00000000     0.00000000     0.00000000
     0.00000000     0.00000000     0.00000000
     0.20201220     0.05462151    -0.01723442
     0.21409980     0.09322827    -0.03283052
     0.18283468     0.09571491    -0.03728318
     0.17749023     0.10853401    -0.04021147
     0.13245388     0.10469752    -0.03886182
     0.10210725     0.10198309    -0.03727862
     0.01209934     0.07337385    -0.02590425
     0.00000000     0.00000000     0.00000000
     0.00000000     0.00000000     0.00000000
     0.23574445     0.07731538    -0.02955844
     0.27646575     0.03818531    -0.02435275
     0.25798352     0.11702186    -0.07013043
     0.38748563     0.01228473    -0.03830338
     0.37802697     0.13734389    -0.11683039
     0.65771276    -0.03063993    -0.14097030
     0.69155119     0.17970566    -0.32539809
     1.16202059    -0.10411075    -0.59306432
     1.95909576     0.96013375    -1.23111242
     0.21505221     0.03619342    -0.03030054
     0.32412221     0.05632215    -0.03456225
     0.36436370     0.00444288    -0.06880658
     0.49531680     0.05820311    -0.07085943
     0.57805163    -0.08526674    -0.14377088
     0.93547003     0.00026240    -0.25168995
     1.18245602    -0.30154793    -0.51643993
     1.39018565    -0.02194211    -1.30883414
     4.76578421     0.07621245    -2.17442875
     0.23834896     0.05724116    -0.03357630
     0.35950256    -0.01452151    -0.03752239
     0.33778509     0.02742155    -0.07787079
     0.62170387    -0.08719659    -0.07063204
     0.57969108    -0.07751400    -0.18376125
     1.12538558    -0.32372029    -0.25649971
     1.04579583    -0.47559564    -0.56660233
     1.84836945    -0.51085543    -1.54144893
     4.70301681    -1.22335770    -2.35478464
     0.23520389    -0.00072798    -0.03292739
     0.34111240     0.01040905    -0.04386303
     0.45229114    -0.07398590    -0.06911726
     0.50807242    -0.08085751    -0.08500480
     0.70364063    -0.24165309    -0.16398162
     0.84389582    -0.37759087    -0.24337365
     0.80018191    -0.65580751    -0.44120722
     1.03940039    -0.82701584    -1.00481251
     3.01229726    -1.45394607    -1.95166748
     0.23689365     0.03069378    -0.03592337
     0.36869502    -0.06135072    -0.04509429
     0.38220787    -0.05809530    -0.06213924
     0.55375436    -0.16926788    -0.08612221
     0.52738374    -0.25211509    -0.13074038
     0.71061067    -0.45110247    -0.19124255
     0.61331221    -0.57712577    -0.27471183
     0.67245139    -0.93898725    -0.46039211
     0.00000000     0.00000000     0.00000000
     0.23841877    -0.03275571    -0.03860661
     0.31480562    -0.03802737    -0.04371494
     0.42654721    -0.11724655    -0.05969778
     0.39531712    -0.16649506    -0.07691797
     0.52781339    -0.27135278    -0.10226713
     0.39077770    -0.39816991    -0.12821590
     0.30155627    -0.43505098    -0.13211437
     0.02401710    -0.50794931    -0.08930224
     0.14937275     0.10816709    -0.00706560
     0.22626312    -0.01321372    -0.03323732
     0.33660410    -0.08335915    -0.04468526
     0.32709214    -0.10968093    -0.05332632
     0.40491081    -0.17302230    -0.06807936
     0.31526432    -0.25724513    -0.07609838
     0.33609073    -0.27988766    -0.08105116
     0.18603950    -0.33187575    -0.05155879
     0.07854315    -0.18477452    -0.02034511
    -0.08356014    -0.17949146    -0.00951653
     0.23232365    -0.05679675    -0.03227462
     0.26759498    -0.07821091    -0.04031599
     0.31447158    -0.12264692    -0.05070723
     0.26945953    -0.16770304    -0.05454003
     0.28975605    -0.18927847    -0.05857042
     0.17759166    -0.24272239    -0.05248928
     0.08254943    -0.14665155    -0.01778980
     0.03623312    -0.15048014     0.00309236
    -0.00786887    -0.02639799     0.03704281
     0.20353065    -0.05338969    -0.02053416
     0.25729616    -0.10085397    -0.04031042
     0.23148633    -0.11325847    -0.04064934
     0.23315381    -0.13980910    -0.04707061
     0.16438493    -0.16979578    -0.04769061
     0.13694211    -0.12872077    -0.03428243
     0.07955673    -0.12452749    -0.02047016
     0.04654952    -0.05726733     0.00222300
    -0.02741744    -0.03580479     0.01839841
     0.21599094    -0.07861906    -0.02445809
     0.19128818    -0.10105515    -0.03053018
     0.17812262    -0.11799270    -0.03511133
     0.14366958    -0.12036925    -0.03670856
     0.11044280    -0.11567850    -0.03882850
     0.05959437    -0.09517649    -0.03482497
     0.00282095    -0.04815505    -0.01905607
     0.00000000     0.00000000     0.00000000
     0.00000000     0.00000000     0.00000000
     0.20171286     0.05155604    -0.02607748
     0.21203512     0.08820730    -0.04938129
     0.18374634     0.08996328    -0.05391455
     0.17506880     0.10217689    -0.05952458
     0.13269081     0.09935354    -0.05774792
     0.09914984     0.09538322    -0.05606025
     0.01347298     0.06903902    -0.04003239
     0.00000000     0.00000000     0.00000000
     0.00000000     0.00000000     0.00000000
     0.23337711     0.06899671    -0.04304304
     0.24079492     0.03660626    -0.05411743
     0.27588550     0.11253333    -0.07024428
     0.26405936     0.00939620    -0.08222191
     0.38014175     0.14109619    -0.12014243
     0.34058783    -0.06177501    -0.15508433
     0.54626432     0.17130859    -0.31715515
     0.51392965    -0.30316874    -0.18102910
     0.53188209     0.68532246    -1.12585342
     0.20734789     0.03071848    -0.03668572
     0.25280450     0.05912621    -0.06860358
     0.41589165    -0.00020885    -0.05462188
     0.28471734     0.07664803    -0.14301798
     0.57905138    -0.07976189    -0.09842803
     0.39654991     0.03716105    -0.33393709
     1.02480795    -0.23360762    -0.33598620
    -0.09447122    -0.21928274    -0.43972728
     1.74879651     0.31067194    -2.14756059
     0.23093469     0.05216853    -0.04800363
     0.30908097    -0.00688820    -0.07130965
     0.32441843     0.03469771    -0.07480986
     0.46445257    -0.05749657    -0.13812560
     0.48008652    -0.04500678    -0.13471867
     0.63100369    -0.21336749    -0.36009491
     0.88184311    -0.31797504    -0.29552691
     0.09340702    -0.25212188    -0.59192210
     1.74312808    -0.53613024    -2.20011556
     0.22946066     0.00169082    -0.04725432
     0.28241803     0.01283515    -0.06539841
     0.44274327    -0.05086664    -0.08143786
     0.34899131    -0.05051693    -0.13255804
     0.61195589    -0.17392144    -0.14765973
     0.44512354    -0.22985359    -0.30572194
     0.63539172    -0.46557347    -0.27321595
     0.03800816    -0.28633718    -0.38440244
     0.68112088    -0.72256500    -1.75969949
     0.23040497     0.02263349    -0.05343721
     0.34138511    -0.04431824    -0.06681619
     0.31414587    -0.04718917    -0.08429200
     0.48396442    -0.11602814    -0.11407104
     0.37586524    -0.19158099    -0.15028350
     0.54483710    -0.29110610    -0.21022991
     0.36442599    -0.39409836    -0.22694787
     0.39041062    -0.53951207    -0.31937019
     0.00000000     0.00000000     0.00000000
     0.23192416    -0.02569540    -0.05572213
     0.28042773    -0.03614692    -0.06350755
     0.38277243    -0.08490384    -0.08719638
     0.31978666    -0.13724463    -0.09727544
     0.43908699    -0.18368956    -0.12894602
     0.28065671    -0.31054857    -0.14734455
     0.22726725    -0.25551923    -0.12873255
    -0.00640580    -0.39668033    -0.09777257
     0.08236682     0.08191750     0.00622082
     0.21981148    -0.01459321    -0.04761460
     0.31015951    -0.06807996    -0.06541497
     0.28760351    -0.09754669    -0.07674908
     0.35560703    -0.12568334    -0.08925842
     0.25376674    -0.21444619    -0.10333545
     0.27949141    -0.18927300    -0.09856498
     0.15575926    -0.27477624    -0.07621955
     0.07848158    -0.11316218    -0.00885195
    -0.10884442    -0.14629627    -0.00990351
     0.22568296    -0.04940042    -0.04748705
     0.25051241    -0.07416061    -0.06056931
     0.28603949    -0.09985860    -0.07352147
     0.23696472    -0.14704284    -0.07740785
     0.25180091    -0.14224869    -0.07863121
     0.15201470    -0.21025304    -0.08124979
     0.07242073    -0.10107401    -0.02578551
     0.03730881    -0.13241531    -0.01466961
     0.03343074    -0.01045609     0.04179228
     0.20333698    -0.05054667    -0.03195211
     0.24279254    -0.09080155    -0.05909589
     0.22091352    -0.10467742    -0.06001768
     0.21006178    -0.12054912    -0.06642502
     0.15540188    -0.14914751    -0.07016796
     0.11092648    -0.10820887    -0.05207308
     0.08097212    -0.10961235    -0.03685590
     0.02836035    -0.03678370     0.00832527
    -0.01436766    -0.03439094     0.00618309
     0.21368967    -0.07059582    -0.03471092
     0.19299227    -0.09509956    -0.04534889
     0.17649939    -0.11007218    -0.05222179
     0.14402897    -0.11312733    -0.05585051
     0.10742092    -0.10791030    -0.05640063
     0.05914455    -0.08739641    -0.04864390
     0.00246146    -0.04561724    -0.02558985
     0.00000000     0.00000000     0.00000000
     0.00000000     0.00000000     0.00000000
     0.20416963     0.04873610    -0.03729141
     0.20882193     0.07934500    -0.06332825
     0.18471111     0.08244591    -0.07050620
     0.17167251     0.09220792    -0.07711203
     0.13162280     0.09114852    -0.07611136
     0.09457388     0.08474501    -0.07210282
     0.01376053     0.06151347    -0.05109141
     0.00000000     0.00000000     0.00000000
     0.00000000     0.00000000     0.00000000
     0.23474247     0.06407459    -0.05906510
     0.24616693     0.02554130    -0.04584237
     0.17215373     0.11725713    -0.12769710
     0.29792036     0.00224589    -0.04378653
     0.14522986     0.14099133    -0.18775723
     0.36935138    -0.06088191    -0.04658725
    -0.12647443     0.15822923    -0.28155538
     0.80981764    -0.23588448    -0.00660182
    -0.47718570     0.36858252    -0.59249887
     0.20348370     0.02831462    -0.04955884
     0.24981186     0.06178023    -0.07173041
     0.27830202     0.01621333    -0.10882108
     0.24849425     0.05901770    -0.08753258
     0.32368325     0.00170345    -0.19229444
     0.27398110    -0.01966855    -0.10481084
     0.21773350     0.00584014    -0.38317015
     0.64716197    -0.32997113     0.13028146
    -0.59787526     0.32421175    -1.14506396
     0.22484145     0.04382585    -0.07017900