# vtk DataFile Version 3.0
Example VTK
ASCII
DATASET UNSTRUCTURED_GRID
POINTS  1313 float
 -0.474693340706E+02 -0.155618659472E+02  0.000000000000E+00
 -0.394812699710E+02 -0.215858630132E+02  0.000000000000E+00
 -0.315338660363E+02 -0.253172760804E+02  0.000000000000E+00
 -0.236448171841E+02 -0.276042294306E+02  0.000000000000E+00
 -0.157859894075E+02 -0.288228353653E+02  0.000000000000E+00
 -0.792591776735E+01 -0.290885499028E+02  0.000000000000E+00
 -0.443068823164E-01 -0.284120473962E+02  0.000000000000E+00
  0.485806477600E+01 -0.266469127900E+02  0.000000000000E+00
  0.971612955200E+01 -0.247938255800E+02  0.000000000000E+00
 -0.500164886199E+02 -0.124480783856E+02  0.000000000000E+00
 -0.396047351254E+02 -0.172334015542E+02  0.000000000000E+00
 -0.317291890911E+02 -0.202160809868E+02  0.000000000000E+00
 -0.238783345327E+02 -0.220518995843E+02  0.000000000000E+00
 -0.160446080453E+02 -0.230277582574E+02  0.000000000000E+00
 -0.822847535980E+01 -0.232472547235E+02  0.000000000000E+00
 -0.454061681353E+00 -0.226866466184E+02  0.000000000000E+00
  0.482390082177E+01 -0.217695696921E+02  0.000000000000E+00
  0.101078004772E+02 -0.206581104249E+02  0.000000000000E+00
 -0.509675871204E+02 -0.933229170615E+01  0.000000000000E+00
 -0.397293608688E+02 -0.128852306258E+02  0.000000000000E+00
 -0.318842598634E+02 -0.151263900417E+02  0.000000000000E+00
 -0.240666239764E+02 -0.165102366971E+02  0.000000000000E+00
 -0.162619432071E+02 -0.172440097319E+02  0.000000000000E+00
 -0.847149867983E+01 -0.173973295910E+02  0.000000000000E+00
 -0.677446782650E+00 -0.169727962911E+02  0.000000000000E+00
  0.494597082844E+01 -0.168458832835E+02  0.000000000000E+00
  0.105669981580E+02 -0.165360298656E+02  0.000000000000E+00
 -0.515348313714E+02 -0.621355782763E+01  0.000000000000E+00
 -0.398471470519E+02 -0.854720882263E+01  0.000000000000E+00
 -0.320106288970E+02 -0.100388956470E+02  0.000000000000E+00
 -0.242102336214E+02 -0.109657959590E+02  0.000000000000E+00
 -0.164234636006E+02 -0.114561404963E+02  0.000000000000E+00
 -0.862918770695E+01 -0.115566616122E+02  0.000000000000E+00
 -0.795070566449E+00 -0.112747806509E+02  0.000000000000E+00
  0.516429494994E+01 -0.119077736211E+02  0.000000000000E+00
  0.111207032990E+02 -0.124204630683E+02  0.000000000000E+00
 -0.518564415135E+02 -0.308234686767E+01  0.000000000000E+00
 -0.399315440458E+02 -0.421610221162E+01  0.000000000000E+00
 -0.321024917846E+02 -0.495512014513E+01  0.000000000000E+00
 -0.243084691028E+02 -0.541658379910E+01  0.000000000000E+00
 -0.165281035841E+02 -0.566509011539E+01  0.000000000000E+00
 -0.872746089983E+01 -0.572565298390E+01  0.000000000000E+00
 -0.856063249068E+00 -0.560218891654E+01  0.000000000000E+00
  0.547993916097E+01 -0.698501962494E+01  0.000000000000E+00
  0.117696329459E+02 -0.831341057813E+01  0.000000000000E+00
 -0.519715982231E+02  0.642739246773E-01  0.000000000000E+00
 -0.399780051683E+02  0.111126775208E+00  0.000000000000E+00
 -0.321498506521E+02  0.127848510111E+00  0.000000000000E+00
 -0.243570933396E+02  0.136971221313E+00  0.000000000000E+00
 -0.165794949433E+02  0.131048345678E+00  0.000000000000E+00
 -0.878163664334E+01  0.104529408075E+00  0.000000000000E+00
 -0.915304204168E+00  0.606911511565E-01  0.000000000000E+00
  0.577102415303E+01 -0.211957556517E+01  0.000000000000E+00
  0.126666666700E+02 -0.428227116300E+01  0.000000000000E+00
 -0.518979896614E+02  0.321541753029E+01  0.000000000000E+00
 -0.399835845655E+02  0.443933418752E+01  0.000000000000E+00
 -0.321509847149E+02  0.521279343409E+01  0.000000000000E+00
 -0.243538564400E+02  0.569561172001E+01  0.000000000000E+00
 -0.165769322824E+02  0.593518541380E+01  0.000000000000E+00
 -0.878938464554E+01  0.594505106754E+01  0.000000000000E+00
 -0.953104366297E+00  0.574077367351E+01  0.000000000000E+00
  0.509365765365E+01  0.363902212964E+01  0.000000000000E+00
  0.111657078139E+02  0.155639794540E+01  0.000000000000E+00
 -0.516246977877E+02  0.635999476572E+01  0.000000000000E+00
 -0.399545927440E+02  0.877252959063E+01  0.000000000000E+00
 -0.321093009509E+02  0.103015244849E+02  0.000000000000E+00
 -0.243009999501E+02  0.112578295724E+02  0.000000000000E+00
 -0.165161839973E+02  0.117478259487E+02  0.000000000000E+00
 -0.873479913788E+01  0.118018855768E+02  0.000000000000E+00
 -0.917643750695E+00  0.114366604956E+02  0.000000000000E+00
  0.453192814137E+01  0.944809787430E+01  0.000000000000E+00
  0.100051487117E+02  0.735975185929E+01  0.000000000000E+00
 -0.511184579238E+02  0.949733911314E+01  0.000000000000E+00
 -0.398959942096E+02  0.131138049775E+02  0.000000000000E+00
 -0.320384233034E+02  0.153946353261E+02  0.000000000000E+00
 -0.242064903920E+02  0.168168794690E+02  0.000000000000E+00
 -0.163908401378E+02  0.175651597891E+02  0.000000000000E+00
 -0.859965222318E+01  0.176778570719E+02  0.000000000000E+00
 -0.788947602194E+00  0.171381108229E+02  0.000000000000E+00
  0.409943692582E+01  0.152429947757E+02  0.000000000000E+00
  0.899605324258E+01  0.131881073918E+02  0.000000000000E+00
 -0.502238182375E+02  0.126362461671E+02  0.000000000000E+00
 -0.398374664116E+02  0.174673952000E+02  0.000000000000E+00
 -0.319518207154E+02  0.204874909850E+02  0.000000000000E+00
 -0.240841708830E+02  0.223681027213E+02  0.000000000000E+00
 -0.162137357085E+02  0.233737151002E+02  0.000000000000E+00
 -0.834995352626E+01  0.235757199624E+02  0.000000000000E+00
 -0.544345390320E+00  0.228530898361E+02  0.000000000000E+00
  0.378569256010E+01  0.210020232718E+02  0.000000000000E+00
  0.813594477576E+01  0.189971883610E+02  0.000000000000E+00
 -0.477273030064E+02  0.157698428227E+02  0.000000000000E+00
 -0.397590157420E+02  0.218207658893E+02  0.000000000000E+00
 -0.318502987665E+02  0.255826344867E+02  0.000000000000E+00
 -0.239645286940E+02  0.279105758161E+02  0.000000000000E+00
 -0.160482485221E+02  0.291587699854E+02  0.000000000000E+00
 -0.808341357651E+01  0.294342560615E+02  0.000000000000E+00
  0.193426643779E-01  0.285566342161E+02  0.000000000000E+00
  0.371063367600E+01  0.266469127900E+02  0.000000000000E+00
  0.742126735300E+01  0.247938255800E+02  0.000000000000E+00
 -0.480797686645E+02 -0.153506108276E+02  0.242576883121E+01
 -0.394787344088E+02 -0.213181002147E+02  0.337471029264E+01
 -0.315322935652E+02 -0.250031246913E+02  0.394769102108E+01
 -0.236494404603E+02 -0.272654893208E+02  0.429991616926E+01
 -0.157936453079E+02 -0.284719970134E+02  0.448189510611E+01
 -0.793221785803E+01 -0.287412181080E+02  0.452642181241E+01
 -0.423582621410E-01 -0.280673699810E+02  0.443188254440E+01
  0.487577938100E+01 -0.263526544000E+02  0.396427664200E+01
  0.974471668600E+01 -0.245950934400E+02  0.257295191300E+01
 -0.500183578187E+02 -0.123875848219E+02  0.270353064174E+01
 -0.395897989135E+02 -0.171111663809E+02  0.376030362371E+01
 -0.317241067677E+02 -0.200888997029E+02  0.440918615316E+01
 -0.238712593450E+02 -0.219126202921E+02  0.480683184962E+01
 -0.160343284598E+02 -0.228854727703E+02  0.501827198745E+01
 -0.821349484127E+01 -0.231047619039E+02  0.506714043918E+01
 -0.434675992150E+00 -0.225440127488E+02  0.494761493496E+01
  0.485314480784E+01 -0.216447883294E+02  0.443926925520E+01
  0.101312209576E+02 -0.206015770849E+02  0.296706936098E+01
 -0.509142082442E+02 -0.932978137011E+01  0.292513598462E+01
 -0.397184446661E+02 -0.128556489220E+02  0.405252938082E+01
 -0.318667070953E+02 -0.150993214390E+02  0.475641650484E+01
 -0.240500317650E+02 -0.164830843458E+02  0.519220390659E+01
 -0.162406156491E+02 -0.172166018805E+02  0.542107971349E+01
 -0.844617070038E+01 -0.173699777303E+02  0.546804161460E+01
 -0.649472391997E+00 -0.169427251430E+02  0.533537329283E+01
  0.497707457002E+01 -0.168209872714E+02  0.480081432074E+01
  0.105872072260E+02 -0.165421807626E+02  0.323738265464E+01
 -0.514557375688E+02 -0.622426590011E+01  0.307624455958E+01
 -0.398338345245E+02 -0.855976864885E+01  0.425069304890E+01
 -0.319895553240E+02 -0.100555155326E+02  0.498687495556E+01
 -0.241870523473E+02 -0.109866403921E+02  0.544650835694E+01
 -0.163971590088E+02 -0.114784158086E+02  0.568677525807E+01
 -0.860067491899E+01 -0.115783471359E+02  0.573332729027E+01
 -0.765990229576E+00 -0.112934783438E+02  0.559384024190E+01
  0.519321567161E+01 -0.119256952295E+02  0.503450465656E+01
  0.111384262313E+02 -0.124378044988E+02  0.336541855134E+01
 -0.517644143163E+02 -0.308990798981E+01  0.314846841671E+01
 -0.399166374501E+02 -0.423443344073E+01  0.434727726263E+01
 -0.320798344327E+02 -0.497738915278E+01  0.509689380151E+01
 -0.242825625824E+02 -0.544294881234E+01  0.556644829711E+01
 -0.164993164951E+02 -0.569266624781E+01  0.581288383048E+01
 -0.869790901666E+01 -0.575189111093E+01  0.586021000731E+01
 -0.828845413384E+00 -0.562550432915E+01  0.571642479910E+01
  0.550231430192E+01 -0.700579947387E+01  0.513307630791E+01
  0.117830383988E+02 -0.831952725537E+01  0.334183070545E+01
 -0.518801421360E+02  0.661330257358E-01  0.314528876558E+01
 -0.399614890104E+02  0.104789809196E+00  0.433620791379E+01
 -0.321271828773E+02  0.119467006843E+00  0.508366869361E+01
 -0.243305101650E+02  0.126514922303E+00  0.555165067832E+01
 -0.165498719493E+02  0.120452242816E+00  0.579882835644E+01
 -0.875126467155E+01  0.958772727048E-01  0.584704697955E+01
 -0.887303864965E+00  0.552126546836E-01  0.570292642309E+01
  0.578968970352E+01 -0.212225931581E+01  0.509845493041E+01
  0.126666666700E+02 -0.428227116300E+01  0.316666666700E+01
 -0.518044286217E+02  0.322284575571E+01  0.315276463083E+01
 -0.399675901962E+02  0.444491548610E+01  0.434885570141E+01
 -0.321271963854E+02  0.521756982052E+01  0.509879700451E+01
 -0.243266874825E+02  0.570063705227E+01  0.557026480091E+01
 -0.165461592933E+02  0.594048707621E+01  0.581962879973E+01
 -0.875646834250E+01  0.595234808586E+01  0.586821772740E+01
[...]
POINT_DATA      1313
VECTORS velocities float 
     0.14702529     0.12278540     0.00000000
     0.10334179     0.15484080     0.00000000
     0.07295176     0.15996157     0.00000000
     0.05274135     0.14062308     0.00000000
     0.03936065     0.11062145     0.00000000
     0.03053783     0.07217496     0.00000000
     0.02318787     0.03360451     0.00000000
     0.00000000     0.00000000     0.00000000
     0.00000000     0.00000000     0.00000000
     0.16024072     0.10478994     0.00000000
     0.26889722     0.11189515     0.00000000
     0.25702736     0.14008247     0.00000000
     0.41343607     0.06000147     0.00000000
     0.46048078     0.09145503     0.00000000
     0.83895202    -0.04569345     0.00000000
     1.23921076     0.20163009     0.00000000
     2.35265667     0.26128858     0.00000000
     3.74520262     1.09803430     0.00000000
     0.19301147     0.07218933     0.00000000
     0.38505682     0.08029273     0.00000000
     0.46061033     0.04807645     0.00000000
     0.64785977     0.02896905     0.00000000
     0.80004558    -0.10447644     0.00000000
     1.27400730    -0.14316064     0.00000000
     2.41307745    -0.26936682     0.00000000
     4.06175591     0.02678537     0.00000000
     7.87642741    -0.28408121     0.00000000
     0.21306794     0.03635872     0.00000000
     0.47886165     0.03409135     0.00000000
     0.51063054     0.01035875     0.00000000
     0.83418020    -0.08613759     0.00000000
     0.89562179    -0.18931140     0.00000000
     1.50274934    -0.42576728     0.00000000
     2.41754827    -0.81894273     0.00000000
     4.93944235    -1.06217455     0.00000000
     7.80852975    -1.80908025     0.00000000
     0.22807425    -0.00786260     0.00000000
     0.49179482     0.00269158     0.00000000
     0.64783364    -0.06010850     0.00000000
     0.78145982    -0.13734880     0.00000000
     0.98080761    -0.31746577     0.00000000
     1.27146067    -0.55710733     0.00000000
     1.64535085    -1.03320765     0.00000000
     2.99016402    -1.85354342     0.00000000
     5.75985595    -2.06680843     0.00000000
     0.23678085    -0.02936198     0.00000000
     0.51475071    -0.05634116     0.00000000
     0.60785837    -0.08561329     0.00000000
     0.78529167    -0.19245022     0.00000000
     0.81249305    -0.34962673     0.00000000
     0.98704690    -0.59497213     0.00000000
     1.07186348    -0.87668883     0.00000000
     1.19781274    -1.51636824     0.00000000
     0.00000000     0.00000000     0.00000000
     0.22978681    -0.08650502     0.00000000
     0.47051673    -0.08127564     0.00000000
     0.60673327    -0.11841217     0.00000000
     0.62222011    -0.21205365     0.00000000
     0.72159679    -0.32401381     0.00000000
     0.60016835    -0.51040742     0.00000000
     0.40602057    -0.60252860     0.00000000
     0.10421854    -0.60139319     0.00000000
     0.25849519     0.16611168     0.00000000
     0.21856364    -0.14124032     0.00000000
     0.44919671    -0.10147582     0.00000000
     0.48440869    -0.14621419     0.00000000
     0.55330762    -0.18081378     0.00000000
     0.46214779    -0.29838106     0.00000000
     0.42686694    -0.32734962     0.00000000
     0.23394800    -0.38559758     0.00000000
     0.10007143    -0.23496877     0.00000000
    -0.05556738    -0.19810875     0.00000000
     0.20409807    -0.17711951     0.00000000
     0.34094034    -0.14122712     0.00000000
     0.39254120    -0.13615709     0.00000000
     0.35716945    -0.18854144     0.00000000
     0.35732065    -0.18686384     0.00000000
     0.21606167    -0.25464855     0.00000000
     0.06122139    -0.14443778     0.00000000
    -0.00599077    -0.15801400     0.00000000
    -0.06315948    -0.02478011     0.00000000
     0.17686704    -0.20341514     0.00000000
     0.24888316    -0.16702916     0.00000000
     0.23898917    -0.15259980     0.00000000
     0.23410876    -0.13919367     0.00000000
     0.17199257    -0.17374451     0.00000000
     0.13576544    -0.10291283     0.00000000
     0.08164580    -0.12119274     0.00000000
     0.02445299    -0.04926290     0.00000000
    -0.06103540    -0.03398355     0.00000000
     0.14348014    -0.22733990     0.00000000
     0.09193890    -0.21300159     0.00000000
     0.07703863    -0.17794844     0.00000000
     0.06781626    -0.14342722     0.00000000
     0.05034593    -0.11679018     0.00000000
     0.02380856    -0.08453716     0.00000000
    -0.01728469    -0.03591024     0.00000000
     0.00000000     0.00000000     0.00000000
     0.00000000     0.00000000     0.00000000
     0.13210427     0.13061950    -0.02171128
     0.08489268     0.16192781    -0.03539468
     0.04949742     0.16168990    -0.03791772
     0.02909858     0.13923406    -0.03317689
     0.01666161     0.10865130    -0.02367391
     0.00741031     0.07217948    -0.01387231
    -0.00275864     0.03147105    -0.00532849
     0.00000000     0.00000000     0.00000000
     0.00000000     0.00000000     0.00000000
     0.16146155     0.11555310    -0.02878545
     0.23217961     0.10727937    -0.04135220
     0.29489623     0.14158689    -0.03445756
     0.32193052     0.04746282    -0.03527919
     0.50434073     0.09799603    -0.04977570
     0.68787204    -0.05545458    -0.07671684
     1.15221450     0.16501730    -0.24240354
     1.82339644     0.15585148    -0.47400277
     3.23112635     1.06352647    -0.79320663
     0.19099854     0.08425669    -0.03550084
     0.32536480     0.07383450    -0.04632646
     0.53337490     0.05236960    -0.03334950
     0.49689167     0.02779147    -0.05303773
     0.87324349    -0.09601395    -0.06531306
     1.03933446    -0.12640689    -0.13373925
     2.13825315    -0.28653477    -0.47674938
     3.06386560     0.02590896    -1.01529211
     7.07131392    -0.16075224    -1.32908686
     0.21056149     0.04648977    -0.03996890
     0.42686600     0.03297613    -0.04737895
     0.56109720     0.01225322    -0.03407344
     0.69898531    -0.08221926    -0.05607847
     0.94894452    -0.17023987    -0.07602939
     1.27422268    -0.40926306    -0.15324514
     2.11533682    -0.71838106    -0.52789158
     3.85670943    -0.88153033    -1.19818874
     7.03947048    -1.66816167    -1.47338238
     0.22470391     0.00342876    -0.03841961
     0.45210589    -0.00256631    -0.04681361
     0.67784803    -0.05577733    -0.03526211
     0.67415215    -0.13023955    -0.05447898
     1.01132174    -0.30031050    -0.06953182
     1.08447525    -0.52078739    -0.14704636
     1.45836284    -0.91102718    -0.37400023
     2.29675171    -1.54418932    -0.80121828
     5.04620909    -1.91179898    -1.24201900
     0.23126428    -0.03346030    -0.04081999
     0.50639235    -0.04975317    -0.04437872
     0.57760606    -0.08943916    -0.03744206
     0.76113054    -0.17903957    -0.04491707
     0.76130943    -0.33794159    -0.06252366
     0.93125536    -0.55291756    -0.10078880
     0.93851876    -0.79272548    -0.19630336
     1.04479531    -1.33715652    -0.33027113
     0.00000000     0.00000000     0.00000000
     0.22611748    -0.08238199    -0.04809574
     0.45060589    -0.08308892    -0.03658309
     0.59305722    -0.11424419    -0.04068042
     0.58792538    -0.20886417    -0.03723122
     0.69378090    -0.30262987    -0.04738048
     0.55509782    -0.48860632    -0.06169876
     0.37221740    -0.54343908    -0.06866609
     0.08000687    -0.57192582    -0.05032608
     0.23408002     0.16512370    -0.00706292
     0.21675710    -0.12968575    -0.04167098
     0.43666491    -0.10515685    -0.03698863
     0.46487225    -0.14536915    -0.03609826
     0.53243147    -0.17365220    -0.03310067
     0.43627502    -0.29202696    -0.03312085
     0.40877024    -0.30041999    -0.02973870
     0.22227434    -0.37449689    -0.01647916
     0.09219815    -0.21097776    -0.00320337
    -0.06657285    -0.19495001     0.00130348
     0.20240308    -0.16689249    -0.03593160
     0.32863892    -0.14316326    -0.03341471
     0.37665331    -0.13531109    -0.03089764
     0.34198580    -0.18940838    -0.02841249
     0.34304650    -0.17556847    -0.02252326
     0.20554909    -0.25250369    -0.01606167
     0.06019195    -0.12803948     0.00363654
     0.00310072    -0.15460244     0.01262929
    -0.05339330    -0.01759240     0.02291996
     0.17582396    -0.19357837    -0.02945586
     0.23852946    -0.16545141    -0.02566492
     0.23506256    -0.15831817    -0.02817088
     0.22235673    -0.13803126    -0.02237037
     0.16745703    -0.17634393    -0.01873831
     0.12658027    -0.09343069    -0.00640396
     0.08205054    -0.12568263    -0.00651594
     0.02008174    -0.04551265     0.00858594
    -0.05404139    -0.03408946     0.01221468
     0.14908995    -0.20814651    -0.02121834
     0.10927142    -0.20406561    -0.02016154
     0.09330104    -0.17343902    -0.01347082
     0.08395605    -0.14113904    -0.01265692
     0.06633336    -0.11445565    -0.01457928
     0.04092392    -0.08098249    -0.01327382
     0.00358850    -0.04074190    -0.00304156
     0.00000000     0.00000000     0.00000000
     0.00000000     0.00000000     0.00000000
     0.13022137     0.11972822    -0.04898311
     0.08548589     0.15377289    -0.06942197
     0.05109838     0.14723486    -0.07038914
     0.03465001     0.12574764    -0.05895573
     0.02282564     0.09973963    -0.04299169
     0.01229023     0.06833504    -0.02693338
     0.00078992     0.03235530    -0.01110835
     0.00000000     0.00000000     0.00000000
     0.00000000     0.00000000     0.00000000
     0.15402490     0.11258614    -0.06597952
     0.24584060     0.10263348    -0.06364377
     0.19500259     0.13900500    -0.09314267
     0.34609229     0.02988826    -0.04956354
     0.32903685     0.10193854    -0.10797684
     0.63616793    -0.06781639    -0.12325821
     0.65026077     0.10121731    -0.29197310
     1.12401431    -0.10557965    -0.57552351
     1.91902512     0.93047493    -1.19961221
     0.18551175     0.08301154    -0.07763444
     0.33530561     0.07473722    -0.06843090
     0.39545669     0.04471104    -0.08926696
     0.51512672     0.03719082    -0.07318328
     0.60459650    -0.09871837    -0.13033399
     0.94503073    -0.07182406    -0.22386014
     1.16778201    -0.32904413    -0.48546966
     1.35800164    -0.07026792    -1.27247985
     4.70172632     0.09951020    -2.13898898
     0.20490163     0.04312896    -0.08273044
     0.42941718     0.02851472    -0.07585344
     0.39965214     0.01902586    -0.08906053
     0.71082667    -0.07465853    -0.07315305
     0.64316365    -0.12989161    -0.16160231
     1.17569926    -0.34917165    -0.22998090
     1.06817492    -0.53234930    -0.53139571
     1.83713154    -0.50190262    -1.50818536
     4.65573543    -1.23597712    -2.30889370
     0.21710182     0.00263152    -0.08472300
     0.42742677    -0.00215745    -0.07746244
     0.56748122    -0.05044314    -0.08314185
     0.61381842    -0.11246345    -0.08037384
     0.80486723    -0.24588878    -0.14330779
     0.90677422    -0.43257721    -0.21295133
     0.81998116    -0.65620414    -0.41000998
     1.02934232    -0.84097575    -0.97199079
     2.96679423    -1.40986312    -1.91665051
     0.22181709    -0.03763526    -0.08536373
     0.46922673    -0.04673619    -0.07967135
     0.49784769    -0.08436752    -0.07519283
     0.68170209    -0.15485632    -0.08084719
     0.62160584    -0.28987910    -0.11014635
     0.78214510    -0.44724819    -0.16088634
     0.65226073    -0.60773441    -0.24572309
     0.69196305    -0.90618472    -0.43523916
     0.00000000     0.00000000     0.00000000
     0.21864002    -0.08432135    -0.08349668
     0.40281770    -0.08195080    -0.08045710
     0.53935062    -0.10623575    -0.07106816
     0.49725230    -0.19222609    -0.07419590
     0.61778646    -0.25252433    -0.08124577
     0.43919962    -0.42180598    -0.10092430
     0.30394895    -0.40637301    -0.10324885
     0.03013717    -0.51646841    -0.07134566
     0.17018648     0.15471098     0.00025956
     0.21106898    -0.12625963    -0.07713393
     0.40478442    -0.10372556    -0.07537761
     0.40445450    -0.14292785    -0.06708922
     0.48246862    -0.15615634    -0.06422410
     0.36723460    -0.26734666    -0.06000636
     0.36415959    -0.24536335    -0.05381754
     0.19745007    -0.33620338    -0.02977554
     0.07079140    -0.15353776    -0.00327017
    -0.08763429    -0.18150419    -0.00489336
     0.19525983    -0.16480460    -0.07025467
     0.29569218    -0.13978970    -0.06628777
     0.34377402    -0.13617685    -0.06211974
     0.29853971    -0.18471058    -0.05378525
     0.31113479    -0.15686382    -0.04256906
     0.17868175    -0.23465618    -0.03357966
     0.05939017    -0.10776214     0.00222158
     0.02053071    -0.14725444     0.01392892
    -0.01996954     0.00026433     0.04612550
     0.16567408    -0.18928726    -0.05740396
     0.22503821    -0.16131841    -0.05352375
     0.21584200    -0.16505527    -0.05304651
     0.20763230    -0.13580426    -0.03909468
     0.14748835    -0.17287311    -0.04074191
     0.12218070    -0.08531441    -0.01390845
     0.06678959    -0.11815269    -0.01238896
     0.03024360    -0.03922078     0.01107570
    -0.04493561    -0.03560816     0.02024802
     0.14622451    -0.19818451    -0.04043053
     0.11011372    -0.20401614    -0.04172908
     0.08962509    -0.17795429    -0.03323612
     0.07757523    -0.14645999    -0.03036558
     0.05858006    -0.11591309    -0.02997838
     0.03583713    -0.07925725    -0.02448640
     0.00183857    -0.03721531    -0.01012452
     0.00000000     0.00000000     0.00000000
     0.00000000     0.00000000     0.00000000
     0.12827246     0.10726571    -0.07599574
     0.08674657     0.14108283    -0.10196946
     0.05327625     0.13043892    -0.09958940
     0.03886073     0.11137491    -0.08323581
     0.02657139     0.09048688    -0.06241030
     0.01429564     0.06377325    -0.04037259
     0.00074226     0.03087716    -0.01862006
     0.00000000     0.00000000     0.00000000
     0.00000000     0.00000000     0.00000000
     0.14478582     0.09363128    -0.09731175
     0.19043055     0.09354490    -0.11242197
     0.20001432     0.12495049    -0.10516013
     0.19619740     0.01955365    -0.09979898
     0.31948704     0.10997504    -0.11430725
     0.30511812    -0.09310524    -0.13002171
     0.50868895     0.10794457    -0.27884723
     0.48723109    -0.29963301    -0.16750668
     0.51548345     0.66276442    -1.09309980
     0.16995496     0.07127294    -0.11668514
     0.22559750     0.06850153    -0.10831346
     0.41438640     0.03069956    -0.09455270
     0.26020610     0.05196374    -0.14442369
     0.57182258    -0.09068658    -0.09081442
     0.38327394    -0.02278070    -0.29254266
     0.99686008    -0.25581673    -0.30052280
    -0.11904357    -0.25238434    -0.40509486
     1.70620642     0.32679675    -2.10935243
     0.18806910     0.03916978    -0.12767733
     0.33196428     0.01997358    -0.11625902
     0.34072436     0.02391753    -0.10340962
     0.49490206    -0.05354505    -0.13962888
     0.49904609    -0.08848306    -0.11487770
     0.64362205    -0.23586159    -0.31936778
     0.87678472    -0.36158875    -0.25341718
     0.08214465    -0.24409379    -0.55795144
     1.71173647    -0.54466942    -2.14944427
     0.20011729     0.00023044    -0.12874414
     0.32001312    -0.00486958    -0.10842213
     0.50037180    -0.04111476    -0.10754649
     0.39273156    -0.08020915    -0.12911045
     0.66007824    -0.18116398    -0.12588572
     0.46683373    -0.27328750    -0.26213512
     0.62834997    -0.46630628    -0.23370837
     0.02655293    -0.29779963    -0.35185851
     0.65370554    -0.69021460    -1.72048894
     0.20436175    -0.03905255    -0.12567634
     0.39530139    -0.04578851    -0.11407392
     0.37260617    -0.07546018    -0.10565032
     0.54782009    -0.11398329    -0.11153538
     0.42188500    -0.22374671    -0.12529980
     0.57397162    -0.29009395    -0.16972403
     0.37624899    -0.41644820    -0.18851266
     0.39107848    -0.51763494    -0.29049321
     0.00000000     0.00000000     0.00000000
     0.20327670    -0.07880671    -0.12276028
     0.32656893    -0.08158049    -0.11072842
     0.43806837    -0.09094176    -0.10801077
     0.36764783    -0.16544472    -0.09571259
     0.48323917    -0.17574183    -0.10428208
     0.29666648    -0.32874992    -0.11048672
     0.21741972    -0.23445463    -0.09054897
    -0.01433014    -0.40366043    -0.07625144
     0.09519743     0.11386710     0.01590760
     0.19591561    -0.11988208    -0.11743041
     0.34022137    -0.09930604    -0.10423073
     0.31700191    -0.13882972    -0.09978994
     0.39006096    -0.12601682    -0.08641984
     0.27081072    -0.22719053    -0.08346416
     0.28596784    -0.16664601    -0.06332092
     0.15300350    -0.27712670    -0.04888548
     0.06495131    -0.09072301     0.01374532
    -0.12044476    -0.14443232    -0.00715738
     0.18031239    -0.15387905    -0.10139416
     0.24940781    -0.13853687    -0.09843134
     0.28409367    -0.13236457    -0.09109331
     0.23624058    -0.17099616    -0.07693063
     0.24927388    -0.12759164    -0.05791128
     0.14255861    -0.20506053    -0.05668806
     0.05039008    -0.07332639     0.00184283
     0.02383548    -0.13119000    -0.00352342
     0.02519353     0.00845620     0.05303983
     0.15851891    -0.17521943    -0.07992172
     0.19808217    -0.16157719    -0.08411082
     0.18329522    -0.16345040    -0.07488623
     0.17305788    -0.13356900    -0.06002523
     0.12445292    -0.15629310    -0.05727934
     0.09291495    -0.08119053    -0.02940618
     0.06895435    -0.10063151    -0.02116179
     0.01273088    -0.02511600     0.01732459
    -0.02526673    -0.03315579     0.00781865
     0.14385184    -0.18737642    -0.05986990
     0.11064898    -0.19886268    -0.06527972
     0.08749836    -0.17647619    -0.05481504
     0.07393436    -0.14638092    -0.04897409
     0.05468047    -0.11426691    -0.04466587
     0.03292977    -0.07641308    -0.03448838
     0.00182868    -0.03696918    -0.01429879
     0.00000000     0.00000000     0.00000000
     0.00000000     0.00000000     0.00000000
     0.12709894     0.09086465    -0.10122049
     0.08813505     0.12187409    -0.13092399
     0.05602715     0.10966722    -0.12497691
     0.04252646     0.09416838    -0.10528079
     0.02936284     0.07812238    -0.08089430
     0.01557459     0.05639741    -0.05356315
     0.00104369     0.02772866    -0.02555698
     0.00000000     0.00000000     0.00000000
     0.00000000     0.00000000     0.00000000
     0.13572303     0.07199664    -0.12163975
     0.18247063     0.07163669    -0.12637040
     0.06063831     0.11615530    -0.16793403
     0.21580206     0.01009746    -0.07671343
     0.06157537     0.10852744    -0.17634041
     0.32263320    -0.07877048    -0.03017831
    -0.15349714     0.10653718    -0.23289153
     0.78288253    -0.22540381    -0.00756003
    -0.46612813     0.35252192    -0.56861723
     0.14506717     0.05061605    -0.14093061
     0.18108052     0.06580599    -0.13464354
     0.22623138     0.03149520    -0.15779894
     0.17724588     0.03370131    -0.10068978
     0.27406677    -0.00649474    -0.18783436
     0.24066685    -0.06455894    -0.06799867
     0.18853064    -0.01090118    -0.33896561
     0.62301291    -0.34875298     0.14776032
    -0.60812055     0.33494944    -1.12022944
     0.15512240     0.02729405    -0.15735412