# vtk DataFile Version 3.0
Example VTK
ASCII
DATASET UNSTRUCTURED_GRID
POINTS  1313 float
 -0.474951497488E+02 -0.155764375645E+02  0.000000000000E+00
 -0.395036495239E+02 -0.216055206773E+02  0.000000000000E+00
 -0.315517875168E+02 -0.253378259628E+02  0.000000000000E+00
 -0.236604471852E+02 -0.276237399932E+02  0.000000000000E+00
 -0.157977942693E+02 -0.288393798112E+02  0.000000000000E+00
 -0.793489319414E+01 -0.291011967554E+02  0.000000000000E+00
 -0.477970781735E-01 -0.284193169835E+02  0.000000000000E+00
  0.485806477600E+01 -0.266469127900E+02  0.000000000000E+00
  0.971612955200E+01 -0.247938255800E+02  0.000000000000E+00
 -0.500444694039E+02 -0.124613684710E+02  0.000000000000E+00
 -0.396283246927E+02 -0.172488360796E+02  0.000000000000E+00
 -0.317499901711E+02 -0.202325568614E+02  0.000000000000E+00
 -0.238961740037E+02 -0.220674191545E+02  0.000000000000E+00
 -0.160596024839E+02 -0.230409590549E+02  0.000000000000E+00
 -0.824005926236E+01 -0.232573859795E+02  0.000000000000E+00
 -0.462596704523E+00 -0.226922192357E+02  0.000000000000E+00
  0.481736717796E+01 -0.217707406393E+02  0.000000000000E+00
  0.101040312516E+02 -0.206575923415E+02  0.000000000000E+00
 -0.509981777921E+02 -0.934099737710E+01  0.000000000000E+00
 -0.397564449171E+02 -0.128963053171E+02  0.000000000000E+00
 -0.319086856941E+02 -0.151379254883E+02  0.000000000000E+00
 -0.240884406148E+02 -0.165213768399E+02  0.000000000000E+00
 -0.162809214122E+02 -0.172536629861E+02  0.000000000000E+00
 -0.848749822639E+01 -0.174046878241E+02  0.000000000000E+00
 -0.690179385024E+00 -0.169764807541E+02  0.000000000000E+00
  0.493645634435E+01 -0.168466803925E+02  0.000000000000E+00
  0.105608000093E+02 -0.165353261351E+02  0.000000000000E+00
 -0.515682832339E+02 -0.621969664801E+01  0.000000000000E+00
 -0.398772358603E+02 -0.855326636417E+01  0.000000000000E+00
 -0.320380144874E+02 -0.100458687842E+02  0.000000000000E+00
 -0.242349833143E+02 -0.109726545471E+02  0.000000000000E+00
 -0.164454059638E+02 -0.114622691054E+02  0.000000000000E+00
 -0.864794134314E+01 -0.115612717046E+02  0.000000000000E+00
 -0.809739402150E+00 -0.112768938714E+02  0.000000000000E+00
  0.515354714941E+01 -0.119079375646E+02  0.000000000000E+00
  0.111139420205E+02 -0.124195360752E+02  0.000000000000E+00
 -0.518911464185E+02 -0.308153413073E+01  0.000000000000E+00
 -0.399635291178E+02 -0.421854963185E+01  0.000000000000E+00
 -0.321320351665E+02 -0.495739404662E+01  0.000000000000E+00
 -0.243351511844E+02 -0.541935654046E+01  0.000000000000E+00
 -0.165518835387E+02 -0.566771038767E+01  0.000000000000E+00
 -0.874781229436E+01 -0.572773219505E+01  0.000000000000E+00
 -0.871640400168E+00 -0.560318879682E+01  0.000000000000E+00
  0.546970406327E+01 -0.698478198951E+01  0.000000000000E+00
  0.117640547641E+02 -0.831233061359E+01  0.000000000000E+00
 -0.520074811470E+02  0.650684788021E-01  0.000000000000E+00
 -0.400109897422E+02  0.114495605575E+00  0.000000000000E+00
 -0.321802271743E+02  0.129557086506E+00  0.000000000000E+00
 -0.243845054172E+02  0.138281906252E+00  0.000000000000E+00
 -0.166039387674E+02  0.131865934027E+00  0.000000000000E+00
 -0.880264137437E+01  0.104902105685E+00  0.000000000000E+00
 -0.931650344533E+00  0.606267258188E-01  0.000000000000E+00
  0.576082516737E+01 -0.211990038692E+01  0.000000000000E+00
  0.126666666700E+02 -0.428227116300E+01  0.000000000000E+00
 -0.519332553833E+02  0.322506121498E+01  0.000000000000E+00
 -0.400167433452E+02  0.444582039456E+01  0.000000000000E+00
 -0.321807144900E+02  0.521892651832E+01  0.000000000000E+00
 -0.243806859739E+02  0.570081165152E+01  0.000000000000E+00
 -0.166008103840E+02  0.593946996775E+01  0.000000000000E+00
 -0.881004488094E+01  0.594796789314E+01  0.000000000000E+00
 -0.969710838306E+00  0.574193052317E+01  0.000000000000E+00
  0.508107591546E+01  0.363871668149E+01  0.000000000000E+00
  0.111577206664E+02  0.155650972209E+01  0.000000000000E+00
 -0.516583156143E+02  0.637457277878E+01  0.000000000000E+00
 -0.399859810316E+02  0.878351383912E+01  0.000000000000E+00
 -0.321372449390E+02  0.103116956022E+02  0.000000000000E+00
 -0.243259483548E+02  0.112669785378E+02  0.000000000000E+00
 -0.165382419049E+02  0.117556089227E+02  0.000000000000E+00
 -0.875390176445E+01  0.118075570445E+02  0.000000000000E+00
 -0.933200584886E+00  0.114393001270E+02  0.000000000000E+00
  0.451899863546E+01  0.944874962569E+01  0.000000000000E+00
  0.999536847015E+01  0.735960006002E+01  0.000000000000E+00
 -0.511511120846E+02  0.951757582354E+01  0.000000000000E+00
 -0.399242197107E+02  0.131290423498E+02  0.000000000000E+00
 -0.320635211842E+02  0.154091632737E+02  0.000000000000E+00
 -0.242285459543E+02  0.168298513254E+02  0.000000000000E+00
 -0.164098696604E+02  0.175765103399E+02  0.000000000000E+00
 -0.861581692616E+01  0.176865111114E+02  0.000000000000E+00
 -0.801887223849E+00  0.171423128861E+02  0.000000000000E+00
  0.408838031008E+01  0.152444123733E+02  0.000000000000E+00
  0.898714646236E+01  0.131882194577E+02  0.000000000000E+00
 -0.502526803416E+02  0.126593768741E+02  0.000000000000E+00
 -0.398623957557E+02  0.174880479208E+02  0.000000000000E+00
 -0.319734654593E+02  0.205062983202E+02  0.000000000000E+00
 -0.241029370010E+02  0.223848458121E+02  0.000000000000E+00
 -0.162290898596E+02  0.233885015905E+02  0.000000000000E+00
 -0.836166805458E+01  0.235875869409E+02  0.000000000000E+00
 -0.553052102790E+00  0.228588452097E+02  0.000000000000E+00
  0.377838112230E+01  0.210035715042E+02  0.000000000000E+00
  0.813036918404E+01  0.189973279529E+02  0.000000000000E+00
 -0.477531467000E+02  0.157968652658E+02  0.000000000000E+00
 -0.397780575495E+02  0.218473045944E+02  0.000000000000E+00
 -0.318672203131E+02  0.256068327965E+02  0.000000000000E+00
 -0.239786643951E+02  0.279314820705E+02  0.000000000000E+00
 -0.160590941040E+02  0.291769890900E+02  0.000000000000E+00
 -0.808878730145E+01  0.294485825257E+02  0.000000000000E+00
  0.213995924526E-01  0.285631553608E+02  0.000000000000E+00
  0.371063367600E+01  0.266469127900E+02  0.000000000000E+00
  0.742126735300E+01  0.247938255800E+02  0.000000000000E+00
 -0.481036959414E+02 -0.153661986901E+02  0.242821510919E+01
 -0.394988274740E+02 -0.213386326181E+02  0.337896200287E+01
 -0.315473450700E+02 -0.250239253944E+02  0.395233623262E+01
 -0.236621144749E+02 -0.272848522441E+02  0.430419321913E+01
 -0.158026566422E+02 -0.284882489760E+02  0.448521467093E+01
 -0.793838892560E+01 -0.287538344200E+02  0.452872398664E+01
 -0.426874647364E-01 -0.280743065550E+02  0.443307302327E+01
  0.487577938100E+01 -0.263526544000E+02  0.396427664200E+01
  0.974471668600E+01 -0.245950934400E+02  0.257295191300E+01
 -0.500467021492E+02 -0.124023573033E+02  0.270680571491E+01
 -0.396129789228E+02 -0.171260987715E+02  0.376480855252E+01
 -0.317446574313E+02 -0.201050417666E+02  0.441360804046E+01
 -0.238889032750E+02 -0.219276612974E+02  0.481088042842E+01
 -0.160490997753E+02 -0.228983583877E+02  0.502171216760E+01
 -0.822483577583E+01 -0.231148889674E+02  0.506987951611E+01
 -0.443129337321E+00 -0.225495692887E+02  0.494917548634E+01
  0.484707997067E+01 -0.216457364960E+02  0.443968982324E+01
  0.101277290057E+02 -0.206011276767E+02  0.296717554632E+01
 -0.509446217142E+02 -0.933996830081E+01  0.292910451398E+01
 -0.397452171749E+02 -0.128663614281E+02  0.405712805912E+01
 -0.318905382033E+02 -0.151107139660E+02  0.476092550203E+01
 -0.240713070254E+02 -0.164940259941E+02  0.519640689056E+01
 -0.162590130610E+02 -0.172261377728E+02  0.542475019132E+01
 -0.846158581515E+01 -0.173773267844E+02  0.547091871529E+01
 -0.661593299759E+00 -0.169464548388E+02  0.533704394701E+01
  0.496811606986E+01 -0.168217904894E+02  0.480149451797E+01
  0.105814059936E+02 -0.165415199722E+02  0.323760541317E+01
 -0.514889844513E+02 -0.623165735918E+01  0.308066007764E+01
 -0.398634931455E+02 -0.856553658370E+01  0.425537357127E+01
 -0.320162935727E+02 -0.100624188360E+02  0.499135840914E+01
 -0.242111598887E+02 -0.109933930945E+02  0.545073184889E+01
 -0.164184639338E+02 -0.114844853523E+02  0.569047784877E+01
 -0.861880949553E+01 -0.115829644979E+02  0.573619433065E+01
 -0.780084699154E+00 -0.112956333795E+02  0.559551754133E+01
  0.518303058817E+01 -0.119259127740E+02  0.503525599891E+01
  0.111320247711E+02 -0.124369419499E+02  0.336566412711E+01
 -0.517988233716E+02 -0.309046778119E+01  0.315289417342E+01
 -0.399482507569E+02 -0.423650736280E+01  0.435203720502E+01
 -0.321086498533E+02 -0.497963903796E+01  0.510132358882E+01
 -0.243085568801E+02 -0.544562476413E+01  0.557060228072E+01
 -0.165224244204E+02 -0.569523138894E+01  0.581652751493E+01
 -0.871763670618E+01 -0.575395049478E+01  0.586301899133E+01
 -0.843885887105E+00 -0.562651701867E+01  0.571805099415E+01
  0.549251773948E+01 -0.700561630474E+01  0.513374740274E+01
  0.117777111503E+02 -0.831851332738E+01  0.334199192781E+01
 -0.519153260787E+02  0.673071265222E-01  0.314998249306E+01
 -0.399940751211E+02  0.108047561891E+00  0.434082243308E+01
 -0.321568530636E+02  0.121309708740E+00  0.508802673709E+01
 -0.243572459197E+02  0.127932173148E+00  0.555570983925E+01
 -0.165736535034E+02  0.121355653419E+00  0.580238491601E+01
 -0.877165181755E+01  0.963062284362E-01  0.584980152173E+01
 -0.903116127181E+00  0.551818119374E-01  0.570453285089E+01
  0.577984230729E+01 -0.212257416381E+01  0.509903043919E+01
  0.126666666700E+02 -0.428227116300E+01  0.316666666700E+01
 -0.518392615952E+02  0.323211247982E+01  0.315838704498E+01
 -0.399999979503E+02  0.445155692986E+01  0.435315498855E+01
 -0.321563237971E+02  0.522382377038E+01  0.510317215477E+01
 -0.243528535034E+02  0.570600179712E+01  0.557431979607E+01
 -0.165693870372E+02  0.594489264382E+01  0.582318480876E+01
 -0.877649302809E+01  0.595534892362E+01  0.587098995619E+01
[...]
POINT_DATA      1313
VECTORS velocities float 
     0.00031216    -0.06340825     0.00000000
     0.06622549    -0.05444514     0.00000000
     0.08475839    -0.04318154     0.00000000
     0.09874628    -0.01230376     0.00000000
     0.07437343     0.01025710     0.00000000
     0.05363535     0.02526440     0.00000000
     0.00757327     0.02424690     0.00000000
     0.00000000     0.00000000     0.00000000
     0.00000000     0.00000000     0.00000000
    -0.01183219    -0.04335345     0.00000000
    -0.03322800    -0.05002306     0.00000000
    -0.00621651    -0.01925861     0.00000000
    -0.01080577    -0.00511404     0.00000000
     0.00122980     0.03429152     0.00000000
    -0.00225926     0.03363976     0.00000000
     0.01116062     0.04723467     0.00000000
     0.01615528     0.00517029     0.00000000
     0.01997105    -0.00452235     0.00000000
    -0.04794143    -0.04396240     0.00000000
    -0.09295049    -0.01998939     0.00000000
    -0.11206349    -0.02513188     0.00000000
    -0.08975223     0.01989216     0.00000000
    -0.07803449     0.01768107     0.00000000
    -0.04340996     0.05099187     0.00000000
    -0.01139204     0.01890788     0.00000000
     0.00902906     0.02760775     0.00000000
     0.00094729    -0.02131613     0.00000000
    -0.05117819    -0.00688837     0.00000000
    -0.14994560    -0.03116536     0.00000000
    -0.16483065     0.00828033     0.00000000
    -0.17032882    -0.00877496     0.00000000
    -0.12832643     0.03421272     0.00000000
    -0.09247515     0.01165622     0.00000000
    -0.05131083     0.03494205     0.00000000
    -0.02646579    -0.00637654     0.00000000
    -0.01007748     0.01979240     0.00000000
    -0.06958788    -0.02224619     0.00000000
    -0.17858337     0.01934317     0.00000000
    -0.22134377    -0.02051452     0.00000000
    -0.20224870     0.01914603     0.00000000
    -0.17793502    -0.01495230     0.00000000
    -0.11047680     0.02218195     0.00000000
    -0.04847472    -0.01195527     0.00000000
    -0.01476449     0.01446206     0.00000000
    -0.01831516    -0.00728288     0.00000000
    -0.07024935     0.04055736     0.00000000
    -0.19704899    -0.00586892     0.00000000
    -0.22473570     0.02436797     0.00000000
    -0.23143874    -0.03054754     0.00000000
    -0.17362804     0.00383527     0.00000000
    -0.13062155    -0.03846202     0.00000000
    -0.07603231     0.00703393     0.00000000
    -0.04711359    -0.01170208     0.00000000
     0.00000000     0.00000000     0.00000000
    -0.07011589     0.02152136     0.00000000
    -0.18502760     0.05139225     0.00000000
    -0.22018640    -0.01562628     0.00000000
    -0.20204017     0.00250648     0.00000000
    -0.17282705    -0.05942472     0.00000000
    -0.10261161    -0.01760339     0.00000000
    -0.03703671    -0.05467831     0.00000000
    -0.01801289     0.01230716     0.00000000
    -0.01559249    -0.05323753     0.00000000
    -0.07124129     0.07793695     0.00000000
    -0.15871742     0.02477509     0.00000000
    -0.17582104     0.02799734     0.00000000
    -0.16128589    -0.04749437     0.00000000
    -0.12120877    -0.03205335     0.00000000
    -0.07564308    -0.08443584     0.00000000
    -0.03912473    -0.01946238     0.00000000
    -0.01059321    -0.04087755     0.00000000
    -0.00416716     0.01288262     0.00000000
    -0.04610313     0.06916123     0.00000000
    -0.10644546     0.06658667     0.00000000
    -0.10250989    -0.00184650     0.00000000
    -0.08234570    -0.00868129     0.00000000
    -0.07106981    -0.08125830     0.00000000
    -0.02508715    -0.05459188     0.00000000
     0.01151477    -0.07090554     0.00000000
     0.01345264    -0.01394349     0.00000000
     0.00700529    -0.02646375     0.00000000
    -0.03942021     0.09709228     0.00000000
    -0.02501786     0.05656052     0.00000000
    -0.01704905     0.03322966     0.00000000
     0.00923299    -0.03096041     0.00000000
     0.00069357    -0.03633071     0.00000000
     0.00948811    -0.09717429     0.00000000
     0.01697460    -0.03285698     0.00000000
     0.01765603    -0.02788813     0.00000000
     0.01706465     0.00263817     0.00000000
     0.00543908     0.09164928     0.00000000
     0.05646878     0.08556803     0.00000000
     0.09119975     0.04088161     0.00000000
     0.08071316     0.00369381     0.00000000
     0.07356876    -0.02873553     0.00000000
     0.03723935    -0.05166487     0.00000000
    -0.00218867    -0.02988015     0.00000000
     0.00000000     0.00000000     0.00000000
     0.00000000     0.00000000     0.00000000
    -0.00096641    -0.05905843     0.01066508
     0.06441567    -0.05230881     0.01154503
     0.08347207    -0.04043048     0.00922918
     0.09465506    -0.01050189     0.00458841
     0.07166294     0.01044001    -0.00028644
     0.05001061     0.02542087    -0.00264035
     0.00504280     0.02372946    -0.00350058
     0.00000000     0.00000000     0.00000000
     0.00000000     0.00000000     0.00000000
    -0.01250427    -0.04520236     0.01234741
    -0.02620044    -0.04519316     0.01373946
    -0.00239627    -0.02339541     0.00754450
    -0.00353280     0.00178047     0.00047454
     0.00704289     0.02785008    -0.00463410
    -0.00083505     0.03953652    -0.00894609
     0.01597201     0.04001022    -0.00812458
     0.00502784     0.01081768    -0.00705821
     0.02589335    -0.00659593    -0.00027346
    -0.04766211    -0.04398841     0.01544208
    -0.08790970    -0.02257300     0.01569541
    -0.09700907    -0.01900661     0.00590357
    -0.08049123     0.01275326    -0.00082118
    -0.06910397     0.02506560    -0.00996021
    -0.03483576     0.04224543    -0.01332475
    -0.01389937     0.02700805    -0.01298426
     0.01571096     0.02277512    -0.00770101
    -0.00328415    -0.01936579     0.00063991
    -0.05086971    -0.00915741     0.01897846
    -0.14062280    -0.02556785     0.01791955
    -0.15435655     0.00252003     0.00458223
    -0.15268336    -0.00087981    -0.00460923
    -0.11836836     0.02696246    -0.01340575
    -0.08338953     0.02018186    -0.01912061
    -0.04175529     0.02812970    -0.01507421
    -0.02283702     0.00093399    -0.00634728
    -0.00971706     0.01712308    -0.00206624
    -0.06751044    -0.01881947     0.01736629
    -0.17165773     0.01310599     0.01872901
    -0.20276545    -0.01195000     0.00446603
    -0.18944772     0.01278970    -0.00657604
    -0.16253317    -0.00646413    -0.01758430
    -0.10041902     0.01604949    -0.02178043
    -0.04585801    -0.00452596    -0.01783394
    -0.01175731     0.00796566    -0.00820340
    -0.01014143    -0.00201371     0.00700252
    -0.06896017     0.04052097     0.02057559
    -0.18492727    -0.00131416     0.01701506
    -0.21482300     0.01893315     0.00513696
    -0.21037411    -0.02195402    -0.00836881
    -0.16502243    -0.00109562    -0.01903245
    -0.11624629    -0.02980952    -0.02409183
    -0.06729472     0.00350885    -0.01849357
    -0.04195673    -0.00935046    -0.01024697
     0.00000000     0.00000000     0.00000000
    -0.06855789     0.01921431     0.02146104
    -0.17552425     0.04821636     0.01694472
    -0.20550414    -0.00830130     0.00459844
    -0.18644577    -0.00200837    -0.00855025
    -0.15868342    -0.04942910    -0.01947666
    -0.09285541    -0.02251481    -0.02464033
    -0.03386794    -0.04624323    -0.02014244
    -0.01487273     0.00954408    -0.01018474
    -0.01367185    -0.04697681    -0.00294621
    -0.07048179     0.07780501     0.01609603
    -0.15374348     0.02959156     0.01811706
    -0.15430020     0.02184983     0.00216482
    -0.15152226    -0.03590731    -0.00583168
    -0.10691166    -0.03590592    -0.01858685
    -0.06929773    -0.07364947    -0.02325529
    -0.02989821    -0.02493538    -0.01905266
    -0.00544920    -0.03542906    -0.01108699
    -0.00511601     0.00648105    -0.00188089
    -0.04820767     0.07364600     0.01795522
    -0.10083717     0.06044156     0.01452951
    -0.08374827     0.00633692     0.00107447
    -0.07793332    -0.01034832    -0.00224733
    -0.05711100    -0.07125445    -0.01684426
    -0.02405936    -0.05785172    -0.01982389
     0.01718015    -0.06098338    -0.01682245
     0.00696400    -0.01563938    -0.00935450
     0.01466519    -0.01969754    -0.00528989
    -0.04178416     0.10061224     0.01782807
    -0.02245378     0.05506016     0.00693578
    -0.00226083     0.03568678     0.00601904
     0.00492459    -0.02358462    -0.00203607
     0.01284851    -0.03636894    -0.01174286
     0.00696971    -0.08634837    -0.01417600
     0.01968831    -0.03584242    -0.01062680
     0.02027814    -0.02226786    -0.00368993
     0.01065713    -0.00149364    -0.00296543
     0.00966028     0.08911906     0.01093890
     0.05801618     0.08643444     0.00909180
     0.09396878     0.04449953    -0.00086450
     0.08685931     0.00663429    -0.00345027
     0.07672521    -0.02665507    -0.00837637
     0.04092979    -0.04656117    -0.01150509
     0.00025183    -0.02774915    -0.00621716
     0.00000000     0.00000000     0.00000000
     0.00000000     0.00000000     0.00000000
    -0.00142895    -0.05482218     0.02194828
     0.06348282    -0.04980381     0.02325228
     0.08129201    -0.03690916     0.01745487
     0.09327533    -0.00808365     0.00682983
     0.06930594     0.01153179    -0.00162920
     0.05149764     0.02582058    -0.00638673
     0.00456060     0.02505547    -0.00701649
     0.00000000     0.00000000     0.00000000
     0.00000000     0.00000000     0.00000000
    -0.00326618    -0.04051461     0.02654925
    -0.01933192    -0.04791650     0.02522844
     0.01501108    -0.01502307     0.01627312
     0.00912470    -0.00370099     0.00349100
     0.01775122     0.03305854    -0.00875183
     0.00658780     0.02948193    -0.01443945
     0.01612454     0.04679800    -0.01787385
     0.00469554     0.00290825    -0.00413707
     0.00441620    -0.00091875    -0.00747649
    -0.05002295    -0.05307899     0.03616222
    -0.06329124    -0.00780932     0.02336404
    -0.07488186    -0.02866130     0.01628189
    -0.05106890     0.02426658    -0.00306470
    -0.04604361     0.01321935    -0.01480909
    -0.02183830     0.05076934    -0.02721727
     0.00048576     0.01501671    -0.02011088
     0.01302724     0.03474649    -0.01453889
     0.00786546    -0.02440379     0.00412565
    -0.04525097    -0.00277887     0.03681429
    -0.12051810    -0.03248398     0.03174963
    -0.10679807     0.01650503     0.00927071
    -0.12093506    -0.01237972    -0.00394713
    -0.08311385     0.03937712    -0.02618042
    -0.06097989     0.00876370    -0.03256492
    -0.03561819     0.03999419    -0.03020264
    -0.01401915    -0.01063446    -0.00951071
    -0.01224849     0.02582831    -0.00536224
    -0.06269927    -0.02622567     0.04113649
    -0.14080938     0.02420492     0.02943614
    -0.16540256    -0.02035821     0.01213053
    -0.13988952     0.02758647    -0.01182152
    -0.12852542    -0.01598196    -0.02991080
    -0.07117098     0.03086525    -0.04131441
    -0.01700424    -0.01274205    -0.03250430
     0.00201952     0.01774340    -0.01757131
    -0.00031240    -0.00945043     0.00956605
    -0.06260418     0.04320158     0.03864588
    -0.15810557    -0.00925944     0.03249154
    -0.16572023     0.03325866     0.00971966
    -0.17068993    -0.02987053    -0.01361164
    -0.11895676     0.01714982    -0.03365213
    -0.09262385    -0.03735819    -0.04537327
    -0.05188040     0.01724124    -0.03415900
    -0.03750024    -0.01000569    -0.01425934
     0.00000000     0.00000000     0.00000000
    -0.06241058     0.01269347     0.03755002
    -0.14662598     0.05829414     0.03364340
    -0.16114203    -0.01798096     0.00704870
    -0.13959434     0.01874155    -0.01183076
    -0.12472153    -0.05467705    -0.03660149
    -0.06401847    -0.00101055    -0.04441295
    -0.00810312    -0.05577067    -0.03884591
    -0.00024008     0.02575140    -0.01832362
    -0.01655414    -0.05957575    -0.00401809
    -0.06800139     0.08221462     0.04377964
    -0.12326396     0.01715292     0.02420023
    -0.11980812     0.03865976     0.01145863
    -0.11034721    -0.03927172    -0.01374060
    -0.07796706    -0.01161079    -0.02967500
    -0.04611944    -0.07882749    -0.04764855
    -0.02661714    -0.00318664    -0.03059089
     0.00152821    -0.04241198    -0.02178934
     0.00700577     0.02223162    -0.00277234
    -0.03830938     0.07066523     0.04245549
    -0.07539309     0.06197923     0.01949532
    -0.05469694     0.00508325     0.01070733
    -0.04897720     0.01067883    -0.00649556
    -0.03994607    -0.07140831    -0.02971871
    -0.00788394    -0.03453564    -0.03564341
     0.02392908    -0.06742693    -0.03217800
     0.01414083    -0.00181912    -0.01501219
     0.00379541    -0.02967596    -0.00995577
    -0.03783088     0.10670914     0.04650378
     0.00584044     0.04245859     0.00780054
    -0.00425335     0.05437749     0.01851066
     0.02872551    -0.02677298    -0.01372281
     0.01795484    -0.01592176    -0.01302756
     0.01760933    -0.08627618    -0.03842449
     0.01181558    -0.01678078    -0.01164813
     0.01563297    -0.02503493    -0.01470503
     0.01712833     0.00734169    -0.00068269
     0.01286513     0.08219034     0.01933013
     0.05592233     0.08500353     0.01717486
     0.09564321     0.04824549     0.00304767
     0.08814946     0.01031527    -0.00461096
     0.07865755    -0.02282245    -0.01388523
     0.03968802    -0.04200537    -0.01849308
     0.00194847    -0.02502556    -0.01068103
     0.00000000     0.00000000     0.00000000
     0.00000000     0.00000000     0.00000000
     0.00026709    -0.04811496     0.03385759
     0.06047501    -0.04571339     0.03356073
     0.08205739    -0.03168587     0.02465728
     0.08932155    -0.00531515     0.00923486
     0.07021134     0.01272313    -0.00274156
     0.04961491     0.02581518    -0.00948596
     0.00687144     0.02513261    -0.01138960
     0.00000000     0.00000000     0.00000000
     0.00000000     0.00000000     0.00000000
     0.00166604    -0.03537974     0.03743575
     0.00314388    -0.04061425     0.03891532
     0.02892555    -0.01620564     0.02309392
     0.03331427     0.00225522     0.00640046
     0.03233965     0.02405239    -0.00930999
     0.01662660     0.03187406    -0.02035962
     0.01808233     0.03553581    -0.02231459
     0.00173180     0.00540150    -0.00180039
    -0.00292068    -0.00078166    -0.00777636
    -0.03727432    -0.04634481     0.05564500
    -0.02975198    -0.00875948     0.02985788
    -0.03024062    -0.01933321     0.02750487
    -0.01252924     0.01654623    -0.00080894
    -0.01122976     0.01857648    -0.01782057
    -0.00128201     0.03901048    -0.03352193
     0.00486997     0.02180718    -0.02716099
     0.01726153     0.02280216    -0.01540697
     0.00693496    -0.01387646     0.00699642
    -0.03609355    -0.01054736     0.05741443
    -0.07148948    -0.01507703     0.03769650
    -0.05569204     0.00615413     0.02112510
    -0.06015460     0.00051096    -0.00309326
    -0.03796051     0.02839927    -0.03025396
    -0.02637992     0.01921987    -0.04175850
    -0.01132916     0.02859168    -0.03858796
    -0.00029444    -0.00099210    -0.01525191
    -0.00871363     0.01308336    -0.00505169
    -0.04971069    -0.01802839     0.06057290
    -0.09238324     0.01592958     0.04038971
    -0.09248439    -0.00374568     0.01950142
    -0.07649342     0.01694152    -0.00970980
    -0.06770534     0.00117199    -0.03585865
    -0.03278509     0.02150495    -0.05284868
    -0.00403563     0.00185176    -0.04109661
     0.00478898     0.00743701    -0.01891017
     0.00659074    -0.00083894     0.00568066
    -0.04950807     0.03189473     0.05608380
    -0.10397907     0.00482752     0.04319884
    -0.10013605     0.02288260     0.01635983
    -0.09234347    -0.00900078    -0.01191407
    -0.06696243     0.01126277    -0.04248907
    -0.04437728    -0.01651521    -0.05607738
    -0.01973496     0.00982698    -0.04656923
    -0.01149847    -0.00471966    -0.01810586
     0.00000000     0.00000000     0.00000000
    -0.05078003     0.01798998     0.05562814
    -0.09676449     0.04467140     0.04200501
    -0.08829055     0.00118567     0.01547771
    -0.07596304     0.01437830    -0.01194139
    -0.06423724    -0.02773552    -0.04389662
    -0.02760497    -0.00563915    -0.05810018
     0.00171178    -0.03198616    -0.04964993
     0.00710484     0.01533551    -0.01909329
    -0.00928850    -0.03145992    -0.01046541
    -0.05344391     0.07196067     0.06550618
    -0.07730327     0.02453212     0.03259893
    -0.05432663     0.03391051     0.01781723
    -0.05714261    -0.01302129    -0.01016177
    -0.03085032    -0.01179126    -0.04113548
    -0.01730532    -0.04884341    -0.05682964
    -0.00091321    -0.01063766    -0.04239783
     0.01169539    -0.02423748    -0.02675712
     0.01182882     0.00449203     0.00205340
    -0.02653978     0.06732785     0.05389538
    -0.03724869     0.05237287     0.03260585
    -0.01404100     0.02474069     0.01679273
    -0.01214701     0.00920510    -0.00551941
    -0.00253801    -0.04109016    -0.03868632
     0.00585903    -0.03330056    -0.04559206
     0.02386915    -0.04277268    -0.04220723
     0.00938258    -0.00228877    -0.01423742
     0.00505243    -0.01452192    -0.01437338
    -0.02391781     0.08919801     0.05147290
     0.01455822     0.05162652     0.02320286
     0.03130328     0.04979147     0.01849901
     0.03744353    -0.00545722    -0.00689448
     0.04230018    -0.01754875    -0.02735026
     0.02020377    -0.05667179    -0.03782801
     0.01860831    -0.02604827    -0.02873513
     0.01798443    -0.01276913    -0.00933483
     0.00648393     0.00066506    -0.00278665
     0.01349954     0.07657177     0.02530357
     0.05649681     0.08126344     0.02691524
     0.09335244     0.04988767     0.00943144
     0.09197893     0.01416934    -0.00504032
     0.07765111    -0.01765237    -0.01819423
     0.04246396    -0.03623347    -0.02609661
     0.00031468    -0.02336102    -0.01401875
     0.00000000     0.00000000     0.00000000
     0.00000000     0.00000000     0.00000000
     0.00370788    -0.03893440     0.04122222
     0.05829287    -0.04013133     0.04384041
     0.08177966    -0.02520413     0.03062190
     0.08784235    -0.00247957     0.01127815
     0.07037171     0.01425880    -0.00314943
     0.04931558     0.02575177    -0.01275343
     0.00704023     0.02447301    -0.01458791
     0.00000000     0.00000000     0.00000000
     0.00000000     0.00000000     0.00000000
     0.01244854    -0.02222481     0.04361374
     0.01853148    -0.03858029     0.05276020
     0.06069441    -0.00666297     0.02756985
     0.05517461    -0.00396417     0.01412503
     0.05290630     0.02738611    -0.01249081
     0.03005502     0.02111575    -0.01740286
     0.01579739     0.03663407    -0.02975562
     0.01004492    -0.00344030     0.00338952
    -0.01795310     0.00146874    -0.00466567
    -0.02301697    -0.03864130     0.06852139
     0.02363666    -0.00251942     0.04050006
     0.01170935    -0.02148897     0.03966405
     0.04321766     0.02287005    -0.00066833
     0.02962133     0.00748894    -0.00876123
     0.01799975     0.04258108    -0.03857511
     0.01936436     0.01113340    -0.02705245
     0.00409125     0.02236070    -0.01480596
     0.02030629    -0.01308703     0.00555069
    -0.00943292    -0.00694457     0.06402117