# vtk DataFile Version 3.0
Example VTK
ASCII
DATASET UNSTRUCTURED_GRID
POINTS  1313 float
 -0.474598290794E+02 -0.155569563992E+02  0.000000000000E+00
 -0.394742625199E+02 -0.215795253224E+02  0.000000000000E+00
 -0.315288100664E+02 -0.253105795416E+02  0.000000000000E+00
 -0.236412032508E+02 -0.275981899512E+02  0.000000000000E+00
 -0.157834658708E+02 -0.288178745753E+02  0.000000000000E+00
 -0.792432802735E+01 -0.290850701749E+02  0.000000000000E+00
 -0.436428908220E-01 -0.284102723412E+02  0.000000000000E+00
  0.485806477600E+01 -0.266469127900E+02  0.000000000000E+00
  0.971612955200E+01 -0.247938255800E+02  0.000000000000E+00
 -0.500060878193E+02 -0.124440090826E+02  0.000000000000E+00
 -0.395965105539E+02 -0.172284724011E+02  0.000000000000E+00
 -0.317224717280E+02 -0.202108906177E+02  0.000000000000E+00
 -0.238728722269E+02 -0.220472218116E+02  0.000000000000E+00
 -0.160402515255E+02 -0.230239857210E+02  0.000000000000E+00
 -0.822512261620E+01 -0.232446420324E+02  0.000000000000E+00
 -0.451628467481E+00 -0.226854448291E+02  0.000000000000E+00
  0.482575655461E+01 -0.217694123979E+02  0.000000000000E+00
  0.101089252303E+02 -0.206583094240E+02  0.000000000000E+00
 -0.509558242989E+02 -0.932942743756E+01  0.000000000000E+00
 -0.397197265197E+02 -0.128818342474E+02  0.000000000000E+00
 -0.318759195287E+02 -0.151227845729E+02  0.000000000000E+00
 -0.240594271817E+02 -0.165069469881E+02  0.000000000000E+00
 -0.162558437567E+02 -0.172413665352E+02  0.000000000000E+00
 -0.846648092479E+01 -0.173955585191E+02  0.000000000000E+00
 -0.673556786016E+00 -0.169721099506E+02  0.000000000000E+00
  0.494883173372E+01 -0.168458925206E+02  0.000000000000E+00
  0.105688732813E+02 -0.165363348674E+02  0.000000000000E+00
 -0.515222195319E+02 -0.621201651822E+01  0.000000000000E+00
 -0.398362714090E+02 -0.854526966897E+01  0.000000000000E+00
 -0.320010318213E+02 -0.100367954842E+02  0.000000000000E+00
 -0.242017736097E+02 -0.109638392953E+02  0.000000000000E+00
 -0.164161322485E+02 -0.114545771428E+02  0.000000000000E+00
 -0.862307364629E+01 -0.115556751799E+02  0.000000000000E+00
 -0.790410076057E+00 -0.112745212099E+02  0.000000000000E+00
  0.516764035694E+01 -0.119079788235E+02  0.000000000000E+00
  0.111227877058E+02 -0.124208466900E+02  0.000000000000E+00
 -0.518432384725E+02 -0.308236418085E+01  0.000000000000E+00
 -0.399199062442E+02 -0.421553327910E+01  0.000000000000E+00
 -0.320920281641E+02 -0.495445043512E+01  0.000000000000E+00
 -0.242991981351E+02 -0.541591443730E+01  0.000000000000E+00
 -0.165200090185E+02 -0.566458043618E+01  0.000000000000E+00
 -0.872068912644E+01 -0.572538427174E+01  0.000000000000E+00
 -0.850996215823E+00 -0.560221366174E+01  0.000000000000E+00
  0.548320333134E+01 -0.698532414525E+01  0.000000000000E+00
  0.117713847503E+02 -0.831381782583E+01  0.000000000000E+00
 -0.519580847931E+02  0.631735814821E-01  0.000000000000E+00
 -0.399659934347E+02  0.110182799939E+00  0.000000000000E+00
 -0.321390379779E+02  0.127184918533E+00  0.000000000000E+00
 -0.243474962828E+02  0.136381440094E+00  0.000000000000E+00
 -0.165710964404E+02  0.130515344570E+00  0.000000000000E+00
 -0.877456812908E+01  0.104096167323E+00  0.000000000000E+00
 -0.909917072965E+00  0.604340666830E-01  0.000000000000E+00
  0.577432533671E+01 -0.211966905068E+01  0.000000000000E+00
  0.126666666700E+02 -0.428227116300E+01  0.000000000000E+00
 -0.518846391010E+02  0.321238476457E+01  0.000000000000E+00
 -0.399715959951E+02  0.443713227337E+01  0.000000000000E+00
 -0.321403539719E+02  0.521078361363E+01  0.000000000000E+00
 -0.243444335475E+02  0.569378244353E+01  0.000000000000E+00
 -0.165686904880E+02  0.593359236005E+01  0.000000000000E+00
 -0.878239019087E+01  0.594386843647E+01  0.000000000000E+00
 -0.947592614947E+00  0.574018675346E+01  0.000000000000E+00
  0.509776754583E+01  0.363895672714E+01  0.000000000000E+00
  0.111682832864E+02  0.155630095846E+01  0.000000000000E+00
 -0.516117440855E+02  0.635512662953E+01  0.000000000000E+00
 -0.399432016142E+02  0.876902700270E+01  0.000000000000E+00
 -0.320992976636E+02  0.102981736477E+02  0.000000000000E+00
 -0.242922238764E+02  0.112547529635E+02  0.000000000000E+00
 -0.165085581697E+02  0.117451384737E+02  0.000000000000E+00
 -0.872831386982E+01  0.117998674624E+02  0.000000000000E+00
 -0.912456498516E+00  0.114356479394E+02  0.000000000000E+00
  0.453618455147E+01  0.944776083024E+01  0.000000000000E+00
  0.100083313321E+02  0.735972634378E+01  0.000000000000E+00
 -0.511060636938E+02  0.949115880515E+01  0.000000000000E+00
 -0.398856104681E+02  0.131088384140E+02  0.000000000000E+00
 -0.320294186723E+02  0.153899089887E+02  0.000000000000E+00
 -0.241987363077E+02  0.168125619501E+02  0.000000000000E+00
 -0.163842690343E+02  0.175613432344E+02  0.000000000000E+00
 -0.859416463147E+01  0.176749043828E+02  0.000000000000E+00
 -0.784618305028E+00  0.171366272049E+02  0.000000000000E+00
  0.410310188936E+01  0.152424451144E+02  0.000000000000E+00
  0.899897639711E+01  0.131880094134E+02  0.000000000000E+00
 -0.502124709735E+02  0.126290019318E+02  0.000000000000E+00
 -0.398282353100E+02  0.174608045955E+02  0.000000000000E+00
 -0.319440419462E+02  0.204813604385E+02  0.000000000000E+00
 -0.240776372749E+02  0.223625512605E+02  0.000000000000E+00
 -0.162084740753E+02  0.233687883538E+02  0.000000000000E+00
 -0.834602291820E+01  0.235717398263E+02  0.000000000000E+00
 -0.541457420804E+00  0.228510897020E+02  0.000000000000E+00
  0.378813569485E+01  0.210014486251E+02  0.000000000000E+00
  0.813778929517E+01  0.189971113609E+02  0.000000000000E+00
 -0.477171779005E+02  0.157616504560E+02  0.000000000000E+00
 -0.397514639157E+02  0.218123602213E+02  0.000000000000E+00
 -0.318440840436E+02  0.255748675486E+02  0.000000000000E+00
 -0.239593862102E+02  0.279037016300E+02  0.000000000000E+00
 -0.160444627284E+02  0.291527578496E+02  0.000000000000E+00
 -0.808133994753E+01  0.294294603159E+02  0.000000000000E+00
  0.188919019325E-01  0.285543303384E+02  0.000000000000E+00
  0.371063367600E+01  0.266469127900E+02  0.000000000000E+00
  0.742126735300E+01  0.247938255800E+02  0.000000000000E+00
 -0.480706329987E+02 -0.153456194836E+02  0.242495118981E+01
 -0.394721698786E+02 -0.213116397776E+02  0.337343140247E+01
 -0.315277942639E+02 -0.249964436914E+02  0.394635029812E+01
 -0.236463566434E+02 -0.272595207180E+02  0.429874457094E+01
 -0.157916210325E+02 -0.284671019276E+02  0.448104265756E+01
 -0.793114169581E+01 -0.287377219258E+02  0.452588755353E+01
 -0.423028636515E-01 -0.280656373315E+02  0.443164408267E+01
  0.487577938100E+01 -0.263526544000E+02  0.396427664200E+01
  0.974471668600E+01 -0.245950934400E+02  0.257295191300E+01
 -0.500078900520E+02 -0.123831790045E+02  0.270247826825E+01
 -0.395817284081E+02 -0.171063787778E+02  0.375891828648E+01
 -0.317174764690E+02 -0.200837732490E+02  0.440781990577E+01
 -0.238658866993E+02 -0.219080349348E+02  0.480563867858E+01
 -0.160300633905E+02 -0.228817346987E+02  0.501730445957E+01
 -0.821023960493E+01 -0.231021117930E+02  0.506642847524E+01
 -0.432300012173E+00 -0.225427838527E+02  0.494723759706E+01
  0.485486854378E+01 -0.216446643212E+02  0.443916451135E+01
  0.101322619392E+02 -0.206017564568E+02  0.296703563664E+01
 -0.509025013228E+02 -0.932655932949E+01  0.292384180950E+01
 -0.397089485528E+02 -0.128523406998E+02  0.405110113887E+01
 -0.318585824424E+02 -0.150957321544E+02  0.475500878008E+01
 -0.240430308139E+02 -0.164798127732E+02  0.519093144095E+01
 -0.162347210140E+02 -0.172139483087E+02  0.542001881069E+01
 -0.844134923997E+01 -0.173681697119E+02  0.546725683570E+01
 -0.645775170986E+00 -0.169420005857E+02  0.533493970892E+01
  0.497976051491E+01 -0.168209771966E+02  0.480063749234E+01
  0.105889629238E+02 -0.165424671729E+02  0.323731685838E+01
 -0.514432166442E+02 -0.622246276729E+01  0.307478219442E+01
 -0.398231281366E+02 -0.855788004570E+01  0.424923088553E+01
 -0.319802003484E+02 -0.100534182987E+02  0.498546515847E+01
 -0.241788343488E+02 -0.109846803349E+02  0.544521592190E+01
 -0.163900597242E+02 -0.114768319939E+02  0.568568607444E+01
 -0.859477858879E+01 -0.115773256489E+02  0.573252241070E+01
 -0.761524727349E+00 -0.112931828821E+02  0.559338814878E+01
  0.519637904728E+01 -0.119258681404E+02  0.503430426136E+01
  0.111403992325E+02 -0.124381639918E+02  0.336534688698E+01
 -0.517513340721E+02 -0.308966069550E+01  0.314702165670E+01
 -0.399051562772E+02 -0.423392872780E+01  0.434577701834E+01
 -0.320696356293E+02 -0.497671437041E+01  0.509549897846E+01
 -0.242735485488E+02 -0.544227824578E+01  0.556516877382E+01
 -0.164914680459E+02 -0.569214040373E+01  0.581179875695E+01
 -0.869136009980E+01 -0.575159909561E+01  0.585940432669E+01
 -0.823965221618E+00 -0.562550407083E+01  0.571597531469E+01
  0.550543156921E+01 -0.700607396837E+01  0.513289613665E+01
  0.117847120034E+02 -0.831991126439E+01  0.334178438213E+01
 -0.518667980074E+02  0.649214243550E-01  0.314377304557E+01
 -0.399496515299E+02  0.103881615704E+00  0.433474946372E+01
 -0.321166237786E+02  0.118781104098E+00  0.508229406905E+01
 -0.243211659440E+02  0.125919102966E+00  0.555039522534E+01
 -0.165417169666E+02  0.119923195948E+00  0.579775668833E+01
 -0.874441847551E+01  0.954540219750E-01  0.584624089211E+01
 -0.882104645078E+00  0.549648970391E-01  0.570247075482E+01
  0.579287005212E+01 -0.212234527726E+01  0.509830062869E+01
  0.126666666700E+02 -0.428227116300E+01  0.316666666700E+01
 -0.517912265726E+02  0.321991864604E+01  0.315108669494E+01
 -0.399558347181E+02  0.444267410543E+01  0.434746477480E+01
 -0.321167975833E+02  0.521554147913E+01  0.509741802028E+01
 -0.243175137914E+02  0.569878448941E+01  0.556900187538E+01
 -0.165381583662E+02  0.593888759581E+01  0.581854111094E+01
 -0.874970345580E+01  0.595116804463E+01  0.586738871782E+01
[...]
POINT_DATA      1313
VECTORS velocities float 
     0.19009982     0.09819096     0.00000000
     0.14014902     0.12675382     0.00000000
     0.10111940     0.13393078     0.00000000
     0.07227867     0.12078959     0.00000000
     0.05047073     0.09921580     0.00000000
     0.03179480     0.06959456     0.00000000
     0.01327983     0.03550110     0.00000000
     0.00000000     0.00000000     0.00000000
     0.00000000     0.00000000     0.00000000
     0.20801601     0.08138606     0.00000000
     0.28957039     0.08747317     0.00000000
     0.26632309     0.11453384     0.00000000
     0.41336278     0.04238962     0.00000000
     0.45488216     0.07972708     0.00000000
     0.82540971    -0.04419521     0.00000000
     1.22692965     0.20102090     0.00000000
     2.32414682     0.25781366     0.00000000
     3.70175224     1.08583025     0.00000000
     0.23525643     0.05728537     0.00000000
     0.38768763     0.06077847     0.00000000
     0.44975024     0.03117183     0.00000000
     0.62910740     0.01475408     0.00000000
     0.77746965    -0.10911013     0.00000000
     1.25014783    -0.14407360     0.00000000
     2.37964109    -0.26469359     0.00000000
     4.01452169     0.02710424     0.00000000
     7.78545185    -0.28112256     0.00000000
     0.25223679     0.03082619     0.00000000
     0.46802017     0.02097716     0.00000000
     0.48821062    -0.00327576     0.00000000
     0.80202663    -0.09487166     0.00000000
     0.86632753    -0.19554432     0.00000000
     1.47023609    -0.42364688     0.00000000
     2.38389425    -0.81231344     0.00000000
     4.87987090    -1.05023753     0.00000000
     7.71906625    -1.78896839     0.00000000
     0.26406082    -0.00034626     0.00000000
     0.47666559    -0.00774204     0.00000000
     0.61468892    -0.06673060     0.00000000
     0.74606356    -0.14778808     0.00000000
     0.94593043    -0.32121034     0.00000000
     1.24081480    -0.55863374     0.00000000
     1.61744333    -1.02504140     0.00000000
     2.95318211    -1.83522678     0.00000000
     5.69341911    -2.04245872     0.00000000
     0.27026860    -0.02200686     0.00000000
     0.49610850    -0.05236185     0.00000000
     0.57373389    -0.09568719     0.00000000
     0.74841978    -0.19921347     0.00000000
     0.77974036    -0.35856278     0.00000000
     0.95964020    -0.59697186     0.00000000
     1.05192048    -0.87500176     0.00000000
     1.18011793    -1.50233908     0.00000000
     0.00000000     0.00000000     0.00000000
     0.26701121    -0.06065531     0.00000000
     0.44965778    -0.07758827     0.00000000
     0.57900026    -0.12287857     0.00000000
     0.58851570    -0.22286831     0.00000000
     0.69388779    -0.33385427     0.00000000
     0.57979403    -0.51887836     0.00000000
     0.39533340    -0.60402681     0.00000000
     0.09923307    -0.60044812     0.00000000
     0.25403361     0.16340129     0.00000000
     0.25907405    -0.09736272     0.00000000
     0.43785437    -0.09535696     0.00000000
     0.46396131    -0.14879720     0.00000000
     0.52905060    -0.19213561     0.00000000
     0.44332108    -0.31309566     0.00000000
     0.41415126    -0.33892037     0.00000000
     0.22894517    -0.39369953     0.00000000
     0.09794408    -0.23868115     0.00000000
    -0.05542726    -0.19920746     0.00000000
     0.24788460    -0.12360616     0.00000000
     0.34503812    -0.12702873     0.00000000
     0.38556539    -0.13585922     0.00000000
     0.34814403    -0.19987568     0.00000000
     0.34895565    -0.20201143     0.00000000
     0.21219801    -0.27068788     0.00000000
     0.06331682    -0.15366566     0.00000000
    -0.00480561    -0.16346417     0.00000000
    -0.06114725    -0.02801306     0.00000000
     0.22694528    -0.14488471     0.00000000
     0.27224685    -0.14110562     0.00000000
     0.25494953    -0.14833406     0.00000000
     0.24311999    -0.14599582     0.00000000
     0.17664503    -0.18736049     0.00000000
     0.13756635    -0.11972841     0.00000000
     0.08498022    -0.13511747     0.00000000
     0.03009104    -0.05528277     0.00000000
    -0.05867056    -0.03544254     0.00000000
     0.20250212    -0.16384733     0.00000000
     0.15103652    -0.16811336     0.00000000
     0.12429446    -0.15533876     0.00000000
     0.10284968    -0.13748372     0.00000000
     0.07571587    -0.12024272     0.00000000
     0.04147258    -0.09591491     0.00000000
    -0.00901525    -0.04607755     0.00000000
     0.00000000     0.00000000     0.00000000
     0.00000000     0.00000000     0.00000000
     0.18271332     0.09982688    -0.01635283
     0.13129060     0.12920874    -0.02557780
     0.08998603     0.13362000    -0.02681446
     0.06167634     0.11937206    -0.02343197
     0.04048551     0.09790172    -0.01704897
     0.02152324     0.06992364    -0.01068518
     0.00110797     0.03465299    -0.00476923
     0.00000000     0.00000000     0.00000000
     0.00000000     0.00000000     0.00000000
     0.20935533     0.08811635    -0.02104747
     0.25362156     0.08379891    -0.03193749
     0.30564001     0.11921953    -0.02929266
     0.32465343     0.03287989    -0.03229885
     0.49925119     0.08971170    -0.04852062
     0.67743627    -0.05368552    -0.07587627
     1.13849020     0.16642023    -0.24135330
     1.80268869     0.15479702    -0.46978605
     3.19320883     1.05095363    -0.78385925
     0.23413843     0.06444081    -0.02588350
     0.32986764     0.05635886    -0.03787562
     0.52407610     0.03603672    -0.02924416
     0.48249301     0.01604455    -0.05121231
     0.85198742    -0.10032961    -0.06494530
     1.01926942    -0.12559805    -0.13402924
     2.10931845    -0.28187517    -0.47300096
     3.02766236     0.02592549    -1.00472870
     6.98982405    -0.15868366    -1.31406286
     0.25041849     0.03606266    -0.02924730
     0.41862257     0.02122770    -0.03988285
     0.53978956     0.00038683    -0.03095533
     0.67187438    -0.09018302    -0.05542796
     0.91996390    -0.17442981    -0.07672200
     1.24672048    -0.40723031    -0.15395888
     2.08482814    -0.71163969    -0.52420213
     3.81082799    -0.87129391    -1.18624188
     6.95843059    -1.64993066    -1.45647143
     0.26160488     0.00494589    -0.02893520
     0.43807155    -0.00933421    -0.03860708
     0.64771035    -0.06285363    -0.03336285
     0.64209044    -0.13804359    -0.05390830
     0.97796352    -0.30401284    -0.07079277
     1.05719031    -0.52079647    -0.14821948
     1.43322163    -0.90438703    -0.37224761
     2.26790097    -1.52900310    -0.79358352
     4.98795700    -1.88925128    -1.22815731
     0.26688257    -0.02423203    -0.03031440
     0.48897025    -0.04751067    -0.03733606
     0.54650965    -0.09595522    -0.03499728
     0.72676705    -0.18563020    -0.04438448
     0.73042195    -0.34457908    -0.06392311
     0.90608574    -0.55510380    -0.10231700
     0.92053898    -0.79044998    -0.19640272
     1.02973742    -1.32509308    -0.32775998
     0.00000000     0.00000000     0.00000000
     0.26404098    -0.05854219    -0.03355872
     0.43449713    -0.07778488    -0.03263161
     0.56500112    -0.11741366    -0.03604221
     0.55836730    -0.21748690    -0.03732705
     0.66670768    -0.31171539    -0.04833239
     0.53714608    -0.49557886    -0.06380379
     0.36157868    -0.54559401    -0.06994187
     0.07625507    -0.57099115    -0.05117885
     0.22988368     0.16272378    -0.00715135
     0.25751622    -0.09214266    -0.03001130
     0.42859601    -0.09558471    -0.03205090
     0.44540760    -0.14623713    -0.03181038
     0.51087748    -0.18292030    -0.03265341
     0.41854644    -0.30450184    -0.03429287
     0.39732861    -0.31118441    -0.03180641
     0.21820820    -0.38085897    -0.01787019
     0.09031061    -0.21416416    -0.00422255
    -0.06619369    -0.19627776     0.00089428
     0.24652745    -0.11937304    -0.02686195
     0.33473001    -0.12606916    -0.02813605
     0.37081041    -0.13324412    -0.02759089
     0.33491002    -0.19825183    -0.02831959
     0.33531634    -0.18904661    -0.02390804
     0.20267110    -0.26644584    -0.01808898
     0.06082841    -0.13765048     0.00174474
     0.00528218    -0.15987560     0.01145811
    -0.05191306    -0.02027327     0.02261544
     0.22577566    -0.14026018    -0.02337131
     0.26269380    -0.13709591    -0.02115014
     0.25150328    -0.15021638    -0.02545303
     0.23252477    -0.14108818    -0.02233107
     0.17282262    -0.18648906    -0.01993930
     0.12924671    -0.10768624    -0.00787914
     0.08761431    -0.13569480    -0.00597179
     0.02426980    -0.04969651     0.00876295
    -0.05144038    -0.03599796     0.01181490
     0.20241087    -0.15160344    -0.01784218
     0.15922730    -0.16244930    -0.01912174
     0.13133372    -0.15180080    -0.01654482
     0.10915986    -0.13465708    -0.01680889
     0.08134310    -0.11676251    -0.01864016
     0.04686488    -0.08973562    -0.01719654
     0.00076528    -0.04460845    -0.00840491
     0.00000000     0.00000000     0.00000000
     0.00000000     0.00000000     0.00000000
     0.18136941     0.09167708    -0.03595678
     0.13253834     0.12439303    -0.05117490
     0.09197850     0.12558617    -0.05173658
     0.06611136     0.11260257    -0.04379245
     0.04515425     0.09411812    -0.03298905
     0.02518017     0.06897275    -0.02197555
     0.00318732     0.03613587    -0.01052398
     0.00000000     0.00000000     0.00000000
     0.00000000     0.00000000     0.00000000
     0.20351847     0.08811359    -0.04810919
     0.26962943     0.08054163    -0.04701193
     0.21210959     0.12208858    -0.08005040
     0.35397149     0.02134363    -0.04174871
     0.33091991     0.09779234    -0.10226629
     0.62946432    -0.06375287    -0.12163948
     0.64406690     0.10448766    -0.29018855
     1.11187106    -0.10310647    -0.56988955
     1.89650420     0.91928315    -1.18587061
     0.23030933     0.06587608    -0.05674637
     0.34369368     0.05852733    -0.05362256
     0.39389441     0.03295696    -0.07955443
     0.50641276     0.03019598    -0.06898375
     0.59216788    -0.09938050    -0.12856286
     0.92860009    -0.06960167    -0.22326377
     1.15203144    -0.32246951    -0.48353820
     1.34176032    -0.06881235    -1.25984259
     4.64765971     0.09860120    -2.11469236
     0.24571569     0.03448659    -0.06028494
     0.42659412     0.01940621    -0.06254256
     0.38791935     0.01040823    -0.08183062
     0.68971561    -0.07832627    -0.07090290
     0.62392695    -0.13120791    -0.16188167
     1.15228483    -0.34529913    -0.23123592
     1.05214681    -0.52648831    -0.52976960
     1.81486244    -0.49553005    -1.49327899
     4.60215983    -1.22268955    -2.28288846
     0.25573081     0.00494514    -0.06241166
     0.41882708    -0.00622772    -0.06481530
     0.54728658    -0.05385941    -0.07704869
     0.58883430    -0.11631298    -0.07913743
     0.77960996    -0.24634325    -0.14483407
     0.88490490    -0.43114056    -0.21536067
     0.80445798    -0.65042877    -0.41000460
     1.01586911    -0.83305559    -0.96353953
     2.93259219    -1.39324878    -1.89506080
     0.25988865    -0.02643269    -0.06244785
     0.45774245    -0.04324823    -0.06753519
     0.47598630    -0.08611648    -0.06907376
     0.65401811    -0.15742164    -0.07967635
     0.59793397    -0.29326073    -0.11221445
     0.76141832    -0.44734604    -0.16410215
     0.64029140    -0.60598405    -0.24760870
     0.68177466    -0.89832218    -0.43261684
     0.00000000     0.00000000     0.00000000
     0.25831163    -0.05913727    -0.06112855
     0.39417960    -0.07442658    -0.06767041
     0.51852846    -0.10405009    -0.06463700
     0.47433837    -0.19620806    -0.07242296
     0.59660302    -0.25730428    -0.08375311
     0.42500410    -0.42618267    -0.10442897
     0.29637634    -0.40719942    -0.10622942
     0.02789295    -0.51506506    -0.07265901
     0.16716836     0.15258825    -0.00026368
     0.25312066    -0.08996815    -0.05768015
     0.40244762    -0.08955678    -0.06261533
     0.39185007    -0.13920690    -0.06046220
     0.46591478    -0.15943434    -0.06284975
     0.35461063    -0.27511282    -0.06279277
     0.35472201    -0.25238557    -0.05764388
     0.19524971    -0.34111594    -0.03361793
     0.06949831    -0.15588451    -0.00506022
    -0.08676615    -0.18252892    -0.00561017
     0.24054411    -0.11840935    -0.05441545
     0.30567526    -0.11919097    -0.05457440
     0.34267508    -0.12772630    -0.05641589
     0.29532031    -0.18731787    -0.05358014
     0.30664500    -0.16410193    -0.04539663
     0.17668665    -0.24409865    -0.03773800
     0.06060447    -0.11397614    -0.00068662
     0.02256499    -0.15096506     0.01240296
    -0.01879186    -0.00191802     0.04520959
     0.21695436    -0.13693370    -0.04617142
     0.25015256    -0.12994024    -0.04412707
     0.23386716    -0.15073424    -0.05071170
     0.21925373    -0.13201793    -0.04092204
     0.15310854    -0.17708699    -0.04458833
     0.12477725    -0.09409233    -0.01860436
     0.07102787    -0.12418419    -0.01589338
     0.03294913    -0.04146292     0.01010947
    -0.04266161    -0.03723462     0.01992529
     0.19932212    -0.14282045    -0.03246400
     0.15980616    -0.15951569    -0.03763275
     0.12901227    -0.15104175    -0.03521309
     0.10439305    -0.13392916    -0.03507790
     0.07479040    -0.11316596    -0.03541810
     0.04240631    -0.08366351    -0.03011671
     0.00024671    -0.03981858    -0.01547987
     0.00000000     0.00000000     0.00000000
     0.00000000     0.00000000     0.00000000
     0.18014638     0.08247722    -0.05527465
     0.13426336     0.11579152    -0.07581147
     0.09442161     0.11511082    -0.07481230
     0.06968021     0.10412235    -0.06377162
     0.04813941     0.08892338    -0.04968791
     0.02703839     0.06633762    -0.03438867
     0.00326394     0.03567859    -0.01770579
     0.00000000     0.00000000     0.00000000
     0.00000000     0.00000000     0.00000000
     0.19617635     0.07460123    -0.07096487
     0.21897552     0.07436606    -0.08731082
     0.22329627     0.11511489    -0.08616689
     0.21159742     0.01638659    -0.08589997
     0.32568306     0.10998213    -0.10542281
     0.30529586    -0.08723968    -0.12664317
     0.50488095     0.11221935    -0.27760120
     0.48294859    -0.29542468    -0.16680600
     0.50945836     0.65515783    -1.08052735
     0.21809276     0.05885558    -0.08559509
     0.24384026     0.05584033    -0.08630061
     0.42070527     0.02500908    -0.07955697
     0.26534788     0.05125013    -0.13545849
     0.56591403    -0.08782479    -0.08619164
     0.37836400    -0.01800026    -0.29132316
     0.98479332    -0.24923404    -0.30074241
    -0.11680800    -0.24803457    -0.40293298
     1.68651355     0.32273638    -2.08525921
     0.23266989     0.03381141    -0.09377391
     0.34152695     0.01449009    -0.09701119
     0.34029771     0.02111003    -0.09079865
     0.48839247    -0.05176193    -0.13411979
     0.48935549    -0.08542100    -0.11344332
     0.63184239    -0.23035656    -0.32023951
     0.86516288    -0.35543103    -0.25569138
     0.08153074    -0.24055818    -0.55481327
     1.69225237    -0.53877956    -2.12497576
     0.24258247     0.00394993    -0.09456753
     0.32524628    -0.00439573    -0.09052655
     0.49288973    -0.03961215    -0.09657129
     0.38275788    -0.07785211    -0.12511308
     0.64477327    -0.17772110    -0.12645143
     0.45586760    -0.26929456    -0.26504951
     0.61832152    -0.46084103    -0.23715124
     0.02656725    -0.29484420    -0.35124208
     0.64613425    -0.68239121    -1.70103975
     0.24598926    -0.02615658    -0.09219201
     0.39701845    -0.03845688    -0.09607137
     0.36440028    -0.07098613    -0.09522360
     0.53379897    -0.11083347    -0.10810537
     0.40834300    -0.22146920    -0.12682983
     0.56140697    -0.28807619    -0.17430982
     0.36968320    -0.41344325    -0.19235163
     0.38639690    -0.51330424    -0.29031531
     0.00000000     0.00000000     0.00000000
     0.24565523    -0.05456812    -0.09138271
     0.32988383    -0.06872009    -0.09185025
     0.43046958    -0.08282547    -0.09718576
     0.35744414    -0.16166093    -0.09283110
     0.47070991    -0.17513252    -0.10612165
     0.28912537    -0.32813786    -0.11616961
     0.21337388    -0.23490853    -0.09541980
    -0.01400445    -0.40140949    -0.07877742
     0.09350119     0.11172999     0.01555889
     0.24060425    -0.08518350    -0.08959361
     0.34791020    -0.08064570    -0.08507213
     0.31544109    -0.12694081    -0.08967716
     0.38450994    -0.12205030    -0.08429920
     0.26505779    -0.22678539    -0.08613695
     0.28124533    -0.16919000    -0.06930400
     0.15204242    -0.27785516    -0.05332508
     0.06509495    -0.09216232     0.01083131
    -0.11894420    -0.14462570    -0.00778567
     0.22800279    -0.11012629    -0.07885905
     0.26643302    -0.11248200    -0.08066582
     0.29168569    -0.11683068    -0.08346746
     0.24134885    -0.16436691    -0.07688465
     0.24911249    -0.12727232    -0.06173407
     0.14316547    -0.20807165    -0.06330846
     0.05189127    -0.07677881    -0.00294840
     0.02581928    -0.13250211    -0.00569391
     0.02587954     0.00665305     0.05216324
     0.20984747    -0.12544532    -0.06278865
     0.22720391    -0.12652517    -0.06985064
     0.20690840    -0.14201194    -0.07165314
     0.18843000    -0.12237273    -0.06226766
     0.13291448    -0.15316322    -0.06273277
     0.09626909    -0.08445983    -0.03649676
     0.07168512    -0.10345918    -0.02616656
     0.01485252    -0.02632803     0.01595105
    -0.02379834    -0.03398228     0.00749211
     0.19674158    -0.13375231    -0.04687468
     0.15983753    -0.15289713    -0.05733664
     0.12718293    -0.14540142    -0.05564266
     0.10094648    -0.12861521    -0.05441185
     0.07078229    -0.10667569    -0.05170034
     0.03958077    -0.07691519    -0.04163487
     0.00047142    -0.03716025    -0.02064910
     0.00000000     0.00000000     0.00000000
     0.00000000     0.00000000     0.00000000
     0.17961231     0.07065712    -0.07308834
     0.13604643     0.10232847    -0.09811418
     0.09711017     0.10104778    -0.09584921
     0.07259516     0.09276383    -0.08288822
     0.05010828     0.08061715    -0.06628850
     0.02809816     0.06096532    -0.04677001
     0.00355712     0.03350107    -0.02470563
     0.00000000     0.00000000     0.00000000
     0.00000000     0.00000000     0.00000000
     0.18801884     0.05807797    -0.08806604
     0.21860348     0.05845630    -0.09410716
     0.09386464     0.11265808    -0.14221237
     0.23615898     0.01295995    -0.05848481
     0.07644494     0.11254264    -0.16363515
     0.32540588    -0.07145541    -0.02642073
    -0.14846215     0.11175250    -0.23248132
     0.77475623    -0.22232247    -0.00795588
    -0.46066723     0.34850659    -0.56231644
     0.19720186     0.04383696    -0.10304712
     0.21034224     0.05770533    -0.10382524
     0.24998642     0.03327134    -0.13625169
     0.19311191     0.03835206    -0.08596588
     0.28131186     0.00019989    -0.17856451
     0.24147174    -0.05722438    -0.06699158
     0.18863881    -0.00514772    -0.33997086
     0.61702462    -0.34406332     0.14484216
    -0.60120601     0.33116914    -1.10776708
     0.20614529     0.02676941    -0.11599292