# vtk DataFile Version 3.0
Example VTK
ASCII
DATASET UNSTRUCTURED_GRID
POINTS  1313 float
 -0.471421023626E+02 -0.154405160850E+02  0.000000000000E+00
 -0.392371678743E+02 -0.214300204035E+02  0.000000000000E+00
 -0.313545465517E+02 -0.251485923945E+02  0.000000000000E+00
 -0.235197877801E+02 -0.274490647892E+02  0.000000000000E+00
 -0.157007300611E+02 -0.286895658529E+02  0.000000000000E+00
 -0.788093116973E+01 -0.289885312685E+02  0.000000000000E+00
 -0.370852035811E-01 -0.283585776011E+02  0.000000000000E+00
  0.485806477600E+01 -0.266469127900E+02  0.000000000000E+00
  0.971612955200E+01 -0.247938255800E+02  0.000000000000E+00
 -0.496607704423E+02 -0.123514345441E+02  0.000000000000E+00
 -0.393267699021E+02 -0.171149881562E+02  0.000000000000E+00
 -0.315039580731E+02 -0.200892128514E+02  0.000000000000E+00
 -0.236977547449E+02 -0.219343575663E+02  0.000000000000E+00
 -0.159044265644E+02 -0.229278722807E+02  0.000000000000E+00
 -0.812342361785E+01 -0.231724299674E+02  0.000000000000E+00
 -0.378126642967E+00 -0.226509312057E+02  0.000000000000E+00
  0.487997039381E+01 -0.217659424524E+02  0.000000000000E+00
  0.101418740668E+02 -0.206640345097E+02  0.000000000000E+00
 -0.505759868153E+02 -0.925715244759E+01  0.000000000000E+00
 -0.394206457830E+02 -0.128055839816E+02  0.000000000000E+00
 -0.316210522031E+02 -0.150387001442E+02  0.000000000000E+00
 -0.238430320068E+02 -0.164281750119E+02  0.000000000000E+00
 -0.160752001886E+02 -0.171745183904E+02  0.000000000000E+00
 -0.831924101633E+01 -0.173478843806E+02  0.000000000000E+00
 -0.559887400513E+00 -0.169529616013E+02  0.000000000000E+00
  0.503261436839E+01 -0.168465201000E+02  0.000000000000E+00
  0.106236891058E+02 -0.165454095208E+02  0.000000000000E+00
 -0.511247951937E+02 -0.617037993014E+01  0.000000000000E+00
 -0.395101119875E+02 -0.850122177087E+01  0.000000000000E+00
 -0.317172885887E+02 -0.999008982838E+01  0.000000000000E+00
 -0.239542366597E+02 -0.109189564416E+02  0.000000000000E+00
 -0.162027260541E+02 -0.114170695929E+02  0.000000000000E+00
 -0.844535385049E+01 -0.115307167769E+02  0.000000000000E+00
 -0.654710013441E+00 -0.112682598887E+02  0.000000000000E+00
  0.526531044196E+01 -0.119144804728E+02  0.000000000000E+00
  0.111838196830E+02 -0.124321771041E+02  0.000000000000E+00
 -0.514289952946E+02 -0.305931584983E+01  0.000000000000E+00
 -0.395754104062E+02 -0.420718986825E+01  0.000000000000E+00
 -0.317880734734E+02 -0.494275018149E+01  0.000000000000E+00
 -0.240307049419E+02 -0.540561740377E+01  0.000000000000E+00
 -0.162855016567E+02 -0.565657320000E+01  0.000000000000E+00
 -0.852397831210E+01 -0.572147348537E+01  0.000000000000E+00
 -0.703445479525E+00 -0.560457671540E+01  0.000000000000E+00
  0.557837896802E+01 -0.699490397514E+01  0.000000000000E+00
  0.118227140774E+02 -0.832584142165E+01  0.000000000000E+00
 -0.515385132719E+02  0.433914789849E-01  0.000000000000E+00
 -0.396117416233E+02  0.902528866158E-01  0.000000000000E+00
 -0.318250715105E+02  0.102592764921E+00  0.000000000000E+00
 -0.240691355763E+02  0.112039548733E+00  0.000000000000E+00
 -0.163266905361E+02  0.108275806582E+00  0.000000000000E+00
 -0.856802657385E+01  0.872097203840E-01  0.000000000000E+00
 -0.752159212682E+00  0.510600196810E-01  0.000000000000E+00
  0.587068637091E+01 -0.212299853714E+01  0.000000000000E+00
  0.126666666700E+02 -0.428227116300E+01  0.000000000000E+00
 -0.514643558345E+02  0.317334998987E+01  0.000000000000E+00
 -0.396169067862E+02  0.438094557635E+01  0.000000000000E+00
 -0.318272793049E+02  0.515161667853E+01  0.000000000000E+00
 -0.240677775486E+02  0.563358402088E+01  0.000000000000E+00
 -0.163258502533E+02  0.588001059900E+01  0.000000000000E+00
 -0.857568080964E+01  0.590459853165E+01  0.000000000000E+00
 -0.784689029991E+00  0.572105486075E+01  0.000000000000E+00
  0.521884143142E+01  0.363628283773E+01  0.000000000000E+00
  0.112440682607E+02  0.155310873282E+01  0.000000000000E+00
 -0.511943293888E+02  0.627412308031E+01  0.000000000000E+00
 -0.395970323020E+02  0.868343942594E+01  0.000000000000E+00
 -0.317973923283E+02  0.102017823308E+02  0.000000000000E+00
 -0.240286610778E+02  0.111584301581E+02  0.000000000000E+00
 -0.162794949092E+02  0.116587377331E+02  0.000000000000E+00
 -0.853372049011E+01  0.117357319540E+02  0.000000000000E+00
 -0.757606727340E+00  0.114041693216E+02  0.000000000000E+00
  0.466239994635E+01  0.943718333343E+01  0.000000000000E+00
  0.101023506342E+02  0.735868579860E+01  0.000000000000E+00
 -0.507013752761E+02  0.939121840054E+01  0.000000000000E+00
 -0.395547199418E+02  0.129855603581E+02  0.000000000000E+00
 -0.317471052387E+02  0.152570104035E+02  0.000000000000E+00
 -0.239583389665E+02  0.166798156359E+02  0.000000000000E+00
 -0.161823112493E+02  0.174413222580E+02  0.000000000000E+00
 -0.842683875373E+01  0.175829542208E+02  0.000000000000E+00
 -0.654169821912E+00  0.170917163947E+02  0.000000000000E+00
  0.421244004611E+01  0.152259621387E+02  0.000000000000E+00
  0.908568293416E+01  0.131849304350E+02  0.000000000000E+00
 -0.498230548478E+02  0.124956051536E+02  0.000000000000E+00
 -0.395172784203E+02  0.173021799263E+02  0.000000000000E+00
 -0.316868287775E+02  0.203104827941E+02  0.000000000000E+00
 -0.238688499225E+02  0.221940927232E+02  0.000000000000E+00
 -0.160444965014E+02  0.232159629901E+02  0.000000000000E+00
 -0.822662500093E+01  0.234488780301E+02  0.000000000000E+00
 -0.454854166827E+00  0.227902679911E+02  0.000000000000E+00
  0.386113409688E+01  0.209842876091E+02  0.000000000000E+00
  0.819262106735E+01  0.189948099246E+02  0.000000000000E+00
 -0.473569146888E+02  0.156073294567E+02  0.000000000000E+00
 -0.394628489347E+02  0.216140092519E+02  0.000000000000E+00
 -0.316199439080E+02  0.253656684429E+02  0.000000000000E+00
 -0.237820626726E+02  0.276999257395E+02  0.000000000000E+00
 -0.159238520443E+02  0.289697179731E+02  0.000000000000E+00
 -0.801135025529E+01  0.292805553632E+02  0.000000000000E+00
  0.121629351525E-01  0.284816744635E+02  0.000000000000E+00
  0.371063367600E+01  0.266469127900E+02  0.000000000000E+00
  0.742126735300E+01  0.247938255800E+02  0.000000000000E+00
 -0.477542624897E+02 -0.152338937230E+02  0.240871731117E+01
 -0.392359231035E+02 -0.211640470169E+02  0.335010199760E+01
 -0.313543494797E+02 -0.248368517229E+02  0.392293762322E+01
 -0.235244309516E+02 -0.271120869307E+02  0.427814508853E+01
 -0.157079497430E+02 -0.283394932286E+02  0.446530584868E+01
 -0.788720932637E+01 -0.286403267133E+02  0.451452969710E+01
 -0.366440743232E-01 -0.280134603766E+02  0.442572180926E+01
  0.487577938100E+01 -0.263526544000E+02  0.396427664200E+01
  0.974471668600E+01 -0.245950934400E+02  0.257295191300E+01
 -0.496610430037E+02 -0.122865366746E+02  0.268274570820E+01
 -0.393152530321E+02 -0.169948789368E+02  0.373128514824E+01
 -0.315003997027E+02 -0.199612241040E+02  0.437820241860E+01
 -0.236926712392E+02 -0.217943294647E+02  0.477824710798E+01
 -0.158965239414E+02 -0.227838951592E+02  0.499355935251E+01
 -0.811145464325E+01 -0.230277834258E+02  0.504776381655E+01
 -0.362090890498E+00 -0.225066262597E+02  0.493658068130E+01
  0.490548147596E+01 -0.216411151586E+02  0.443605698630E+01
  0.101627280252E+02 -0.206070915209E+02  0.296603237450E+01
 -0.505229258749E+02 -0.925036138975E+01  0.289963707592E+01
 -0.394126223919E+02 -0.127762285631E+02  0.402090306548E+01
 -0.316079585905E+02 -0.150102507624E+02  0.472211531426E+01
 -0.238305484324E+02 -0.163991266168E+02  0.515901926574E+01
 -0.160586355768E+02 -0.171449040114E+02  0.539203134589E+01
 -0.829901649215E+01 -0.173182238340E+02  0.544566159957E+01
 -0.537168703130E+00 -0.169211668169E+02  0.532252308711E+01
  0.505851264291E+01 -0.168208534455E+02  0.479544133266E+01
  0.106403538869E+02 -0.165509586944E+02  0.323536074564E+01
 -0.510472402768E+02 -0.617928358421E+01  0.304697229767E+01
 -0.395002416266E+02 -0.851284572360E+01  0.421699501580E+01
 -0.317014653392E+02 -0.100051677197E+02  0.495083724460E+01
 -0.239365933070E+02 -0.109376779011E+02  0.541122529301E+01
 -0.161821920544E+02 -0.114370765117E+02  0.565580905393E+01
 -0.842267292193E+01 -0.115502879745E+02  0.570979374427E+01
 -0.631205404390E+00 -0.112853230242E+02  0.558030439149E+01
  0.528887856382E+01 -0.119312040726E+02  0.502842361912E+01
  0.111981666207E+02 -0.124487813121E+02  0.336320532851E+01
 -0.513398053618E+02 -0.306687261123E+01  0.311844784505E+01
 -0.395641039432E+02 -0.422421280502E+01  0.431198834222E+01
 -0.317710720344E+02 -0.496349796329E+01  0.506015798319E+01
 -0.240108788243E+02 -0.542999530333E+01  0.553059190536E+01
 -0.162630090490E+02 -0.568211336913E+01  0.578137335539E+01
 -0.850051149830E+01 -0.574596129559E+01  0.583632947006E+01
 -0.681576395954E+00 -0.562658442611E+01  0.570292397906E+01
  0.559642408163E+01 -0.701455727686E+01  0.512760857059E+01
  0.118337564424E+02 -0.833124786143E+01  0.334040118917E+01
 -0.514492866793E+02  0.443327434136E-01  0.311373283881E+01
 -0.395994093915E+02  0.852213500051E-01  0.430101758067E+01
 -0.318079536471E+02  0.955680069002E-01  0.504688242096E+01
 -0.240487689609E+02  0.103275439509E+00  0.551595158861E+01
 -0.163035063123E+02  0.993644586789E-01  0.576730175586E+01
 -0.854388735504E+01  0.799280678486E-01  0.582298773413E+01
 -0.729655098919E+00  0.464421818282E-01  0.568928427772E+01
  0.588577768316E+01 -0.212525592213E+01  0.509380748660E+01
  0.126666666700E+02 -0.428227116300E+01  0.316666666700E+01
 -0.513729527013E+02  0.318222206431E+01  0.312084039016E+01
 -0.396050737270E+02  0.438710884108E+01  0.431344789393E+01
 -0.318093115474E+02  0.515784267719E+01  0.506160126613E+01
 -0.240469660894E+02  0.564002627620E+01  0.553381520522E+01
 -0.163017231040E+02  0.588681657213E+01  0.578720423107E+01
 -0.854943163318E+01  0.591316870673E+01  0.584333211796E+01
[...]
POINT_DATA      1313
VECTORS velocities float 
    -3.78831775    -1.11456013     0.00000000
    -3.01583482    -1.52900126     0.00000000
    -2.31793226    -1.70716505     0.00000000
    -1.73546664    -1.65034908     0.00000000
    -1.20766731    -1.48370897     0.00000000
    -0.67753932    -1.17677314     0.00000000
    -0.09103381    -0.67520522     0.00000000
     0.00000000     0.00000000     0.00000000
     0.00000000     0.00000000     0.00000000
    -4.08699836    -0.89140109     0.00000000
    -4.34571282    -1.30233009     0.00000000
    -4.38116067    -1.56551019     0.00000000
    -3.94249711    -1.97105626     0.00000000
    -3.38047053    -1.98000132     0.00000000
    -2.12892029    -2.32753073     0.00000000
    -1.16600592    -1.28390272     0.00000000
    -0.20906602    -0.70350729     0.00000000
     0.60901246     0.09327788     0.00000000
    -4.38095652    -0.65922051     0.00000000
    -5.62571590    -0.99496833     0.00000000
    -5.89937055    -1.61420425     0.00000000
    -6.36618867    -1.93705974     0.00000000
    -5.66774910    -3.28930646     0.00000000
    -4.59113293    -3.43300827     0.00000000
    -2.32488670    -3.33701348     0.00000000
    -0.57669831    -1.46880742     0.00000000
     0.29939109    -0.54069288     0.00000000
    -4.58064605    -0.42740827     0.00000000
    -6.20140110    -0.78693887     0.00000000
    -7.62553372    -1.20541438     0.00000000
    -7.84359480    -2.40114870     0.00000000
    -9.04205070    -3.23855641     0.00000000
    -7.98649790    -6.21704770     0.00000000
    -5.27546611    -5.70923404     0.00000000
    -2.32829301    -3.85967170     0.00000000
     0.00048676    -0.09424247     0.00000000
    -4.71358834    -0.16480293     0.00000000
    -7.11970536    -0.36536718     0.00000000
    -8.08925759    -1.01282266     0.00000000
   -10.26951588    -1.83304395     0.00000000
   -10.75487251    -3.87403208     0.00000000
   -14.11841369    -5.77042590     0.00000000
   -12.70757379   -12.29225527     0.00000000
    -4.53596141    -7.37417368     0.00000000
    -1.65143301     0.21941440     0.00000000
    -4.78080855     0.12218437     0.00000000
    -7.03436160     0.03974438     0.00000000
    -9.31563613    -0.47013542     0.00000000
   -10.39044630    -1.36596683     0.00000000
   -14.21012249    -2.94145520     0.00000000
   -16.28459349    -5.47487917     0.00000000
   -28.43532993    -9.92655378     0.00000000
   -21.51797174   -20.00808947     0.00000000
     0.00000000     0.00000000     0.00000000
    -4.79594227     0.42118793     0.00000000
    -7.22888407     0.44745684     0.00000000
    -8.84379952     0.21308865     0.00000000
   -11.32069793    -0.64149191     0.00000000
   -14.04610465    -1.38508755     0.00000000
   -20.39096031    -3.64027521     0.00000000
   -28.81951189    -4.63175689     0.00000000
   -49.69987450   -13.85145575     0.00000000
   -50.45050420   -17.30943618     0.00000000
    -4.75737970     0.69962959     0.00000000
    -6.59412420     0.96208792     0.00000000
    -9.06824044     0.67322519     0.00000000
    -9.64164748     0.64786672     0.00000000
   -14.39987929    -0.43192360     0.00000000
   -17.19094548     0.28495540     0.00000000
   -32.68285048    -0.98089356     0.00000000
   -43.69763351     1.78388820     0.00000000
   -77.91321482   -12.32970225     0.00000000
    -4.68417026     0.97147557     0.00000000
    -6.02502438     1.29710817     0.00000000
    -7.36871918     1.48861827     0.00000000
    -8.22123810     1.19086493     0.00000000
   -11.50456885     1.61400838     0.00000000
   -13.60309506     1.05204488     0.00000000
   -20.40015683     4.42993697     0.00000000
   -31.48693244     3.13448950     0.00000000
   -51.84178561    10.33238495     0.00000000
    -4.50021537     1.24743990     0.00000000
    -4.89630079     1.72494827     0.00000000
    -5.69932985     1.77685797     0.00000000
    -5.53602242     2.20754577     0.00000000
    -7.17942321     1.97792014     0.00000000
    -7.68660631     2.48515584     0.00000000
   -10.62962979     2.89564121     0.00000000
   -13.09306828     6.35956484     0.00000000
   -20.93019589     3.66143266     0.00000000
    -4.30931404     1.51186286     0.00000000
    -3.57994698     1.98978708     0.00000000
    -2.96215588     2.23980269     0.00000000
    -2.38407594     2.26972507     0.00000000
    -1.74578215     2.16590300     0.00000000
    -1.00249426     1.88481945     0.00000000
     0.03603266     0.97500179     0.00000000
     0.00000000     0.00000000     0.00000000
     0.00000000     0.00000000     0.00000000
    -3.77565778    -1.06119010     0.15590193
    -3.01312039    -1.50574676     0.23329049
    -2.31807689    -1.68098608     0.23908572
    -1.74811803    -1.63255136     0.21900534
    -1.22691976    -1.47435849     0.17632972
    -0.69418510    -1.18574698     0.13509050
    -0.09105556    -0.67869138     0.07903725
     0.00000000     0.00000000     0.00000000
     0.00000000     0.00000000     0.00000000
    -4.10693106    -0.93281434     0.18964137
    -4.30437334    -1.27440398     0.31955532
    -4.22790162    -1.59082805     0.35404070
    -3.89159756    -1.91392876     0.34103832
    -3.20527137    -1.97712488     0.29971874
    -2.13069246    -2.26758157     0.26028861
    -1.03860733    -1.27015112     0.07403032
    -0.42806933    -0.67563501    -0.10435453
     0.75777502     0.01766847    -0.02750426
    -4.37902128    -0.69706342     0.22954329
    -5.52598792    -0.98795730     0.40186814
    -5.72956333    -1.58648249     0.41393152
    -6.11380959    -1.90704137     0.46298951
    -5.47295295    -3.14756685     0.46816853
    -4.31793972    -3.30524985     0.40715553
    -2.32054083    -3.19040136     0.19077963
    -0.43500333    -1.31498260    -0.04684145
     0.22751323    -0.51567692    -0.07877443
    -4.56688002    -0.43849251     0.26045178
    -6.10915003    -0.78845284     0.44629882
    -7.35591879    -1.18315822     0.47983554
    -7.58794804    -2.32644567     0.55530007
    -8.57096400    -3.08890812     0.67730784
    -7.59827687    -5.86185438     0.80858982
    -4.83747700    -5.27386514     0.65189808
    -2.14887677    -3.62441836     0.29919807
     0.03669974    -0.13826473    -0.09264956
    -4.69067154    -0.16225192     0.27503087
    -6.99073471    -0.37019543     0.46439877
    -7.84423322    -0.99185488     0.51774172
    -9.88088182    -1.75505376     0.65543462
   -10.23469307    -3.70175713     0.87886726
   -13.18386482    -5.35901326     1.40285744
   -11.57533893   -11.36290247     2.01582218
    -3.98751651    -6.78766686     1.07826310
    -1.33679779     0.20015247     0.09591900
    -4.76104665     0.12535690     0.28384604
    -6.91125040     0.02839894     0.45743557
    -9.03411305    -0.44026295     0.54766890
   -10.01356981    -1.32922774     0.68985765
   -13.49002462    -2.75594452     1.08956052
   -15.15589321    -5.16632944     1.88015077
   -25.68103684    -8.91989948     3.79629194
   -18.95102916   -18.18205956     4.34924482
     0.00000000     0.00000000     0.00000000
    -4.77083996     0.42028426     0.28126437
    -7.30070949     0.44715916     0.45617961
    -8.16111522     0.22585779     0.56710177
   -11.39063630    -0.61049728     0.68962686
   -12.65687379    -1.24529528     1.24416432
   -19.76836631    -3.49185639     2.08136872
   -24.12378161    -4.02918332     4.86942013
   -44.67174276   -12.18179081     8.32464373
   -45.51800621   -16.32510537     8.46178913
    -4.74203585     0.71093121     0.27654784
    -6.80601916     0.92254989     0.40222227
    -8.08326430     0.69196483     0.57753309
   -10.12126498     0.62807937     0.61678790
   -12.47572564    -0.34969445     1.27823705
   -17.41723327     0.19148697     1.78182667
   -26.81020766    -0.95756229     4.64831950
   -39.35676737     1.82619575     8.78083748
   -70.34430919   -11.30844242    10.12214429
    -4.66720340     0.98826399     0.27344159
    -6.32041418     1.28419024     0.34499431
    -6.27530292     1.44888887     0.54280126
    -8.92707611     1.23508208     0.54679796
    -9.56461703     1.50320553     1.08934945
   -14.28467182     1.00125037     1.25211763
   -15.59925150     3.91917492     3.14453555
   -29.50859981     2.44494730     5.88585377
   -45.19660430    10.40749308     7.59936085
    -4.47712829     1.24286493     0.26905537
    -5.05768735     1.64605400     0.25406611
    -5.01850188     1.73869518     0.46032185
    -5.98443266     2.15854586     0.47517158
    -5.99614477     1.82962212     0.65494517
    -8.12431457     2.34435285     0.76774949
    -8.43920575     2.40269471     1.16568991
   -12.19204568     5.65769101     2.73341577
   -17.69234555     3.23299701     3.09906834
    -4.22103744     1.40907929     0.23039213
    -3.57992705     1.93135757     0.31254100
    -2.95018864     2.18200931     0.34458358
    -2.35057109     2.20677958     0.36551867
    -1.68795603     2.08444742     0.39636238
    -0.91700781     1.73506467     0.36863965
     0.03470459     0.85178140     0.23312053
     0.00000000     0.00000000     0.00000000
     0.00000000     0.00000000     0.00000000
    -3.76162416    -0.98325136     0.32736229
    -3.04319425    -1.48625754     0.48816658
    -2.35434089    -1.66129238     0.50732051
    -1.79764314    -1.63557864     0.46073652
    -1.27304491    -1.49842483     0.38965933
    -0.73361816    -1.21615411     0.30430627
    -0.10270949    -0.71588735     0.18222022
     0.00000000     0.00000000     0.00000000
     0.00000000     0.00000000     0.00000000
    -4.05441573    -0.97573713     0.43234462
    -4.12994517    -1.21278164     0.59312732
    -4.03466581    -1.59620657     0.70716938
    -3.57045979    -1.79203247     0.66679839
    -3.06802195    -1.95015463     0.58957126
    -1.86677611    -2.10552766     0.48817349
    -1.08394163    -1.30716465     0.19410692
    -0.46323566    -0.52137302    -0.11184438
     0.43722266    -0.01816507    -0.18244087
    -4.35107323    -0.74852823     0.50658075
    -5.23829672    -0.92599626     0.69085353
    -5.30155804    -1.52737811     0.84796313
    -5.58184080    -1.78925638     0.85579726
    -4.88184419    -2.78536916     0.89013242
    -3.92026094    -3.03288229     0.72380907
    -1.93131072    -2.77868849     0.40232031
    -0.52394212    -1.09208321    -0.06505562
     0.35107268    -0.61121019    -0.14684450
    -4.52169496    -0.44365932     0.53694513
    -5.77855268    -0.75948042     0.82096157
    -6.68078046    -1.10986455     0.91205440
    -6.81758382    -2.09861327     1.06952798
    -7.52881612    -2.69936145     1.18660173
    -6.48068009    -4.89727311     1.40108791
    -4.33006300    -4.44203666     1.05740758
    -1.59025739    -3.06079348     0.38703253
    -0.01664811     0.07137543    -0.18388131
    -4.63561929    -0.16941420     0.56727970
    -6.55493003    -0.35793621     0.85695656
    -7.20101878    -0.90677057     0.99314561
    -8.73230979    -1.55260545     1.20368834
    -8.87343930    -3.16723316     1.54220349
   -10.83399751    -4.32430426     2.26021974
    -8.74267936    -8.87004894     3.05731632
    -2.78188606    -5.37885313     1.58648277
    -0.68911513    -0.16044920     0.17882702
    -4.70106947     0.12578285     0.56882856
    -6.51630290     0.02044819     0.87910795
    -8.19353363    -0.39116893     1.01607507
    -8.89110004    -1.15649508     1.29119050
   -11.54106417    -2.31311489     1.85391683
   -12.05450453    -4.23539338     3.00254368
   -19.21734649    -6.48562466     5.60105455
   -13.37179201   -13.79004903     5.93620066
     0.00000000     0.00000000     0.00000000
    -4.72114667     0.41549627     0.57199361
    -6.64780716     0.41641878     0.88453800
    -7.76743615     0.20854241     0.97830403
    -9.57647296    -0.46094336     1.42488661
   -11.23857506    -1.09184613     1.84407038
   -15.11032809    -2.79721047     3.68498708
   -17.04060336    -3.29077119     6.39398480
   -28.78788377    -7.85798750    10.80720341
   -33.38110546   -12.98708851    14.00952532
    -4.69861136     0.70142832     0.57041572
    -6.11311544     0.85336115     0.85252193
    -7.86720960     0.64553749     0.87843683
    -8.20662420     0.65357366     1.52062489
   -11.44993304    -0.33309782     1.57435596
   -12.51448278     0.13004098     3.76302773
   -21.47229238    -1.37161796     5.46202993
   -20.71886815     1.94327290    11.29935669
   -53.11306186    -8.73160533    18.15126557
    -4.59297176     0.98968112     0.58158661
    -5.52412443     1.11463458     0.74111947
    -6.41360423     1.39860290     0.85131220
    -7.02091930     1.17063580     1.36206560
    -9.23565189     1.29059788     1.33343884
   -10.15162258     0.64447455     2.83191307
   -13.23971616     2.63492315     3.80620397
   -16.26667384     1.05866782     6.86045021
   -33.78870239     8.72548455    13.48813753
    -4.35544147     1.20169524     0.53500089
    -4.51109092     1.50749984     0.66948876
    -5.24225692     1.64067687     0.73210927
    -4.71755052     1.99042665     1.13918458
    -5.99065458     1.65739957     1.01169845
    -5.80584292     1.80215237     1.60147743
    -8.00859305     1.65399113     1.91964760
    -6.88890015     4.21734201     2.72399418
   -12.22034835     1.81751314     4.95096414
    -4.15895954     1.28348459     0.39127184
    -3.58064262     1.82275277     0.57081642
    -2.93665414     2.06945105     0.64746030
    -2.30018223     2.08915784     0.69488106
    -1.59763436     1.93726112     0.71708114
    -0.85179486     1.55711077     0.62729838
     0.02297407     0.74584296     0.35742777
     0.00000000     0.00000000     0.00000000
     0.00000000     0.00000000     0.00000000
    -3.75514481    -0.89910546     0.49471694
    -3.07936876    -1.42406120     0.74092402
    -2.39886807    -1.60569300     0.77437852
    -1.84011777    -1.60272826     0.71865343
    -1.30370937    -1.48300526     0.62821452
    -0.75618822    -1.20261885     0.50437965
    -0.10639142    -0.72216687     0.30601359
     0.00000000     0.00000000     0.00000000
     0.00000000     0.00000000     0.00000000
    -3.98421265    -0.86644056     0.64109008
    -3.90543341    -1.16450822     0.86763479
    -3.62606329    -1.52477632     1.03426022
    -3.22509724    -1.63613283     0.96386344
    -2.63224883    -1.79794121     0.87401701
    -1.70278533    -1.86362161     0.69015420
    -0.73966024    -1.19409204     0.31077304
    -0.58436418    -0.46362185     0.05733108
     0.04999888    -0.05059505    -0.27959567
    -4.23625361    -0.71852912     0.77258950
    -4.69437539    -0.85477968     0.94068245
    -4.66318001    -1.40705931     1.23514047
    -4.66917104    -1.56516541     1.20191425
    -4.05866053    -2.28730066     1.18665438
    -3.14208902    -2.46521742     0.98392971
    -1.62067951    -2.30664889     0.56533214
    -0.32999902    -0.72269749    -0.07663623
     0.35021217    -0.47467959    -0.05782154
    -4.40361284    -0.47498535     0.84982979
    -5.15398616    -0.64494228     1.08163336
    -5.63133860    -1.01187617     1.34131298
    -5.65515527    -1.75085310     1.43785556
    -5.86436513    -2.05812820     1.48307530
    -4.98246979    -3.63965292     1.66796459
    -3.21842874    -3.13009448     1.10864772
    -1.12885938    -2.35278383     0.37265473
    -0.08831046    -0.03418017    -0.32598479
    -4.51785820    -0.17622823     0.86219098
    -5.83224432    -0.32446925     1.17537813
    -5.98815620    -0.77950424     1.39319288
    -7.08448553    -1.21115238     1.60869931
    -6.75098069    -2.43219509     1.84400889
    -7.69414208    -2.86337060     2.39460892
    -5.63454650    -5.85134052     2.92443537
    -1.68570973    -3.41348381     1.27313622
     0.03081827    -0.21356441     0.15577862
    -4.56702454     0.10545623     0.85009700
    -5.73764521     0.02047692     1.19339681
    -6.89375967    -0.29684169     1.43964249
    -7.03044295    -0.92723091     1.66644802
    -8.76235730    -1.60914971     2.18793186
    -8.06751652    -3.05689145     3.02292701
   -11.37155674    -3.49084511     4.85430312
    -7.23023559    -8.75048974     5.11235264
     0.00000000     0.00000000     0.00000000
    -4.58772845     0.37011349     0.87995228
    -6.06193549     0.36615241     1.18308071
    -6.07153447     0.20932714     1.48580140
    -8.02180404    -0.28052132     1.63903063
    -7.81454171    -0.79930736     2.44296206
   -10.81310833    -1.91635480     3.22411194
    -7.29227902    -2.23515071     5.87739848
   -16.80292404    -4.31460498     7.79416637
   -17.87834130    -6.46596159    11.65349825
    -4.55971334     0.66241599     0.90864750
    -5.55016734     0.73975054     1.03531805
    -6.23851340     0.63043842     1.51395508
    -6.84661494     0.59265473     1.55075536
    -8.19802657    -0.20050494     2.47073425
    -8.62601309    -0.02777560     2.85736491
   -11.58024304    -1.30700064     5.92443133
   -11.36135049     0.50218477     6.35973870
   -24.06963354    -4.14976118    17.50719835
    -4.44255381     0.91083298     0.84260030
    -5.25621799     1.00619724     0.99006198
    -4.86730050     1.33023178     1.51052617
    -6.32419628     0.91482649     1.32176469
    -6.19444383     1.25769842     2.36703797
    -8.10967089    -0.02189816     1.97568540
    -5.10033727     1.84393980     4.76977888
   -13.04646984    -0.98606458     3.80675125
   -13.57889756     6.17851450    11.60502973
    -4.24657267     1.06754757     0.69672473
    -4.44135128     1.39258051     0.88264394
    -4.15254751     1.51677873     1.27646793
    -4.59223224     1.73675128     1.26737122
    -3.94356803     1.37975854     1.65076168
    -5.19314620     1.39674018     1.58962208
    -3.38195942     0.69511597     2.02800069
    -6.07195289     2.81882953     2.91605381
    -5.72911817    -0.11851722     2.99095715
    -4.10532200     1.16283114     0.53660703
    -3.56783435     1.67645948     0.82766425
    -2.91340307     1.89072143     0.97049686
    -2.25195631     1.90138439     1.04120839
    -1.53247621     1.73949925     1.03011172
    -0.80847675     1.37304549     0.85794146
     0.01551791     0.66267767     0.46583689
     0.00000000     0.00000000     0.00000000
     0.00000000     0.00000000     0.00000000
    -3.76093883    -0.79794709     0.64867320
    -3.11692250    -1.31364753     0.97998480
    -2.44291213    -1.50090366     1.04332353
    -1.87179152    -1.52190824     0.98974102
    -1.31646239    -1.41596951     0.88083845
    -0.76463321    -1.14286514     0.70672949
    -0.11057866    -0.69771919     0.43104365
     0.00000000     0.00000000     0.00000000
     0.00000000     0.00000000     0.00000000
    -3.89112869    -0.71112156     0.79278577
    -3.57923893    -1.07855677     1.15150049
    -3.16757780    -1.35448694     1.28473741
    -2.57537510    -1.45391361     1.28784990
    -2.22164776    -1.49086180     1.09093027
    -1.15313512    -1.48220169     0.92238937
    -0.71157484    -0.95735791     0.44771799
     0.00378886    -0.30065218     0.09613045
    -0.44085916    -0.06358906    -0.16159191
    -4.01496415    -0.59764269     0.94153297
    -4.00282185    -0.81181855     1.24645445
    -3.75436478    -1.17480011     1.51718358
    -3.46981112    -1.28577958     1.47292377
    -2.82734121    -1.62758656     1.41946915
    -2.23869661    -1.68192111     1.08876969
    -0.74300118    -1.56939945     0.74505218
    -0.52229136    -0.32937210    -0.10563824
     0.57283544    -0.36201824    -0.05937417
    -4.13831912    -0.44550320     1.08351489