# vtk DataFile Version 3.0
Example VTK
ASCII
DATASET UNSTRUCTURED_GRID
POINTS  1313 float
 -0.475087946678E+02 -0.155552228493E+02  0.000000000000E+00
 -0.395290808374E+02 -0.215853668552E+02  0.000000000000E+00
 -0.315793814785E+02 -0.253208423714E+02  0.000000000000E+00
 -0.236886289924E+02 -0.276146013736E+02  0.000000000000E+00
 -0.158187533825E+02 -0.288371857109E+02  0.000000000000E+00
 -0.794821900975E+01 -0.291041728473E+02  0.000000000000E+00
 -0.481812848573E-01 -0.284245126834E+02  0.000000000000E+00
  0.485806477600E+01 -0.266469127900E+02  0.000000000000E+00
  0.971612955200E+01 -0.247938255800E+02  0.000000000000E+00
 -0.500563211760E+02 -0.124441558015E+02  0.000000000000E+00
 -0.396426148570E+02 -0.172327902675E+02  0.000000000000E+00
 -0.317662909381E+02 -0.202201477641E+02  0.000000000000E+00
 -0.239112426720E+02 -0.220610975374E+02  0.000000000000E+00
 -0.160720957250E+02 -0.230405135490E+02  0.000000000000E+00
 -0.824807781746E+01 -0.232613560394E+02  0.000000000000E+00
 -0.467980490824E+00 -0.226969360994E+02  0.000000000000E+00
  0.481375717430E+01 -0.217719595615E+02  0.000000000000E+00
  0.101021693393E+02 -0.206574954128E+02  0.000000000000E+00
 -0.510015608385E+02 -0.932541207333E+01  0.000000000000E+00
 -0.397620747559E+02 -0.128862843179E+02  0.000000000000E+00
 -0.319144676004E+02 -0.151297539784E+02  0.000000000000E+00
 -0.240937343482E+02 -0.165175780412E+02  0.000000000000E+00
 -0.162854820399E+02 -0.172539851386E+02  0.000000000000E+00
 -0.849174029839E+01 -0.174078132282E+02  0.000000000000E+00
 -0.694443844268E+00 -0.169795595437E+02  0.000000000000E+00
  0.493242387873E+01 -0.168479300945E+02  0.000000000000E+00
  0.105579109393E+02 -0.165352370479E+02  0.000000000000E+00
 -0.515705627033E+02 -0.621379901298E+01  0.000000000000E+00
 -0.398754541099E+02 -0.854657317198E+01  0.000000000000E+00
 -0.320361019816E+02 -0.100418574222E+02  0.000000000000E+00
 -0.242333412681E+02 -0.109704660323E+02  0.000000000000E+00
 -0.164447609823E+02 -0.114623388856E+02  0.000000000000E+00
 -0.864909303842E+01 -0.115627031749E+02  0.000000000000E+00
 -0.812659907982E+00 -0.112781444358E+02  0.000000000000E+00
  0.514996093905E+01 -0.119083669270E+02  0.000000000000E+00
  0.111109461264E+02 -0.124193098841E+02  0.000000000000E+00
 -0.518884277816E+02 -0.307432186254E+01  0.000000000000E+00
 -0.399575257497E+02 -0.421883673834E+01  0.000000000000E+00
 -0.321253341815E+02 -0.495598352249E+01  0.000000000000E+00
 -0.243292567586E+02 -0.541839986712E+01  0.000000000000E+00
 -0.165481504624E+02 -0.566684156056E+01  0.000000000000E+00
 -0.874718099212E+01 -0.572707596551E+01  0.000000000000E+00
 -0.873701712529E+00 -0.560252129670E+01  0.000000000000E+00
  0.546685409755E+01 -0.698418862614E+01  0.000000000000E+00
  0.117616415968E+02 -0.831192051960E+01  0.000000000000E+00
 -0.520048654055E+02  0.569693498574E-01  0.000000000000E+00
 -0.400030073289E+02  0.112427827617E+00  0.000000000000E+00
 -0.321716684648E+02  0.127441965072E+00  0.000000000000E+00
 -0.243772085592E+02  0.138757581738E+00  0.000000000000E+00
 -0.165993305972E+02  0.134022403109E+00  0.000000000000E+00
 -0.880178365918E+01  0.107987051450E+00  0.000000000000E+00
 -0.934062805822E+00  0.633130778554E-01  0.000000000000E+00
  0.575797771998E+01 -0.211857799573E+01  0.000000000000E+00
  0.126666666700E+02 -0.428227116300E+01  0.000000000000E+00
 -0.519312894054E+02  0.321968827102E+01  0.000000000000E+00
 -0.400093352270E+02  0.443611934794E+01  0.000000000000E+00
 -0.321737877409E+02  0.521501950719E+01  0.000000000000E+00
 -0.243749696955E+02  0.570062029740E+01  0.000000000000E+00
 -0.165976647151E+02  0.594325693684E+01  0.000000000000E+00
 -0.881058092529E+01  0.595378605583E+01  0.000000000000E+00
 -0.973571331337E+00  0.574691270332E+01  0.000000000000E+00
  0.507673850470E+01  0.364130694805E+01  0.000000000000E+00
  0.111542009546E+02  0.155764394147E+01  0.000000000000E+00
 -0.516567641350E+02  0.635112136860E+01  0.000000000000E+00
 -0.399831866520E+02  0.877283300659E+01  0.000000000000E+00
 -0.321353158823E+02  0.103042918625E+02  0.000000000000E+00
 -0.243251146246E+02  0.112663636138E+02  0.000000000000E+00
 -0.165389442008E+02  0.117609463059E+02  0.000000000000E+00
 -0.875733069397E+01  0.118164184112E+02  0.000000000000E+00
 -0.939162701598E+00  0.114467242476E+02  0.000000000000E+00
  0.451300566784E+01  0.945296696159E+01  0.000000000000E+00
  0.999038519974E+01  0.736140886117E+01  0.000000000000E+00
 -0.511561031835E+02  0.949653404305E+01  0.000000000000E+00
 -0.399284927680E+02  0.131108304650E+02  0.000000000000E+00
 -0.320706047893E+02  0.153994911649E+02  0.000000000000E+00
 -0.242360937588E+02  0.168278932896E+02  0.000000000000E+00
 -0.164169619911E+02  0.175830581058E+02  0.000000000000E+00
 -0.862323788755E+01  0.176985688016E+02  0.000000000000E+00
 -0.810131087114E+00  0.171521792732E+02  0.000000000000E+00
  0.408114414532E+01  0.152497052003E+02  0.000000000000E+00
  0.898150694913E+01  0.131905248767E+02  0.000000000000E+00
 -0.502586338309E+02  0.126288624096E+02  0.000000000000E+00
 -0.398785759317E+02  0.174658556887E+02  0.000000000000E+00
 -0.319930665164E+02  0.204929321750E+02  0.000000000000E+00
 -0.241231137161E+02  0.223807334063E+02  0.000000000000E+00
 -0.162452701286E+02  0.233950644727E+02  0.000000000000E+00
 -0.837392338366E+01  0.236026963701E+02  0.000000000000E+00
 -0.561712713071E+00  0.228710093473E+02  0.000000000000E+00
  0.377102033897E+01  0.210088165731E+02  0.000000000000E+00
  0.812577092434E+01  0.189989441923E+02  0.000000000000E+00
 -0.477721158036E+02  0.157671702512E+02  0.000000000000E+00
 -0.398068532518E+02  0.218167357192E+02  0.000000000000E+00
 -0.319057969173E+02  0.255891563261E+02  0.000000000000E+00
 -0.240130796614E+02  0.279238100752E+02  0.000000000000E+00
 -0.160933811718E+02  0.291818765385E+02  0.000000000000E+00
 -0.810885629210E+01  0.294640881809E+02  0.000000000000E+00
  0.170194229429E-01  0.285764862653E+02  0.000000000000E+00
  0.371063367600E+01  0.266469127900E+02  0.000000000000E+00
  0.742126735300E+01  0.247938255800E+02  0.000000000000E+00
 -0.481184505802E+02 -0.153446142631E+02  0.242502170131E+01
 -0.395257920302E+02 -0.213180429805E+02  0.337475518142E+01
 -0.315769451763E+02 -0.250069826249E+02  0.394836449772E+01
 -0.236921789146E+02 -0.272759927041E+02  0.430131958856E+01
 -0.158255585608E+02 -0.284861580642E+02  0.448374993506E+01
 -0.795383931831E+01 -0.287569436576E+02  0.452830746485E+01
 -0.452379970341E-01 -0.280796340542E+02  0.443351369366E+01
  0.487577938100E+01 -0.263526544000E+02  0.396427664200E+01
  0.974471668600E+01 -0.245950934400E+02  0.257295191300E+01
 -0.500585322403E+02 -0.123841594449E+02  0.270281178110E+01
 -0.396281139202E+02 -0.171106583762E+02  0.376047473518E+01
 -0.317616589662E+02 -0.200930080893E+02  0.441021544281E+01
 -0.239047556032E+02 -0.219219235015E+02  0.480903733663E+01
 -0.160621852187E+02 -0.228982688724E+02  0.502118610922E+01
 -0.823317421257E+01 -0.231190416464E+02  0.507051043237E+01
 -0.448288354223E+00 -0.225544894602E+02  0.495031771537E+01
  0.484357766502E+01 -0.216470328653E+02  0.444016390044E+01
  0.101260020258E+02 -0.206010057914E+02  0.296728527648E+01
 -0.509480714254E+02 -0.932329143967E+01  0.292401194387E+01
 -0.397518382110E+02 -0.128567432901E+02  0.405266978533E+01
 -0.318977398352E+02 -0.151027418479E+02  0.475777620765E+01
 -0.240778419500E+02 -0.164905365897E+02  0.519485695943E+01
 -0.162645981961E+02 -0.172267275848E+02  0.542480519845E+01
 -0.846641388285E+01 -0.173806929200E+02  0.547220981158E+01
 -0.666110835258E+00 -0.169497320719E+02  0.533861423635E+01
  0.496410087871E+01 -0.168230677091E+02  0.480236523406E+01
  0.105786660464E+02 -0.165414295133E+02  0.323786881357E+01
 -0.514915173180E+02 -0.622470862477E+01  0.307462860330E+01
 -0.398628668759E+02 -0.855913493268E+01  0.425084232237E+01
 -0.320159716184E+02 -0.100585596827E+02  0.498837971145E+01
 -0.242109991356E+02 -0.109914535402E+02  0.544954142625E+01
 -0.164189444377E+02 -0.114848322678E+02  0.569106615607E+01
 -0.862068842687E+01 -0.115846682804E+02  0.573805835342E+01
 -0.783365977494E+00 -0.112970966119E+02  0.559749926256E+01
  0.517936249035E+01 -0.119264327877E+02  0.503639580953E+01
  0.111291630150E+02 -0.124367206220E+02  0.336600544426E+01
 -0.517967997580E+02 -0.308269925908E+01  0.314727916145E+01
 -0.399433113364E+02 -0.423692262901E+01  0.434719620513E+01
 -0.321036956262E+02 -0.497839020666E+01  0.509851181310E+01
 -0.243042129211E+02 -0.544493390879E+01  0.556971061201E+01
 -0.165198945529E+02 -0.569467136223E+01  0.581756882946E+01
 -0.871779503787E+01 -0.575359096739E+01  0.586535456670E+01
 -0.846393207172E+00 -0.562607324995E+01  0.572036821632E+01
  0.548950479256E+01 -0.700514236622E+01  0.513500984168E+01
  0.117753898392E+02 -0.831811475943E+01  0.334228582895E+01
 -0.519133402885E+02  0.586051089273E-01  0.314355441949E+01
 -0.399874498593E+02  0.106136578923E+00  0.433620540356E+01
 -0.321499589294E+02  0.118953285099E+00  0.508526204576E+01
 -0.243515267316E+02  0.128100260494E+00  0.555503411122E+01
 -0.165702491075E+02  0.123155141979E+00  0.580374442973E+01
 -0.877158370563E+01  0.990768957571E-01  0.585248560493E+01
 -0.905972325169E+00  0.576429969505E-01  0.570710161535E+01
  0.577680937181E+01 -0.212136905234E+01  0.510035277544E+01
  0.126666666700E+02 -0.428227116300E+01  0.316666666700E+01
 -0.518373729866E+02  0.322810615353E+01  0.315109031378E+01
 -0.399941577254E+02  0.444138191273E+01  0.434871168599E+01
 -0.321511067336E+02  0.521973976341E+01  0.510039404373E+01
 -0.243487658596E+02  0.570538299706E+01  0.557373456658E+01
 -0.165674583257E+02  0.594823435312E+01  0.582476302219E+01
 -0.877780200531E+01  0.596080455469E+01  0.587397412614E+01
[...]
POINT_DATA      1313
VECTORS velocities float 
    -3.66692305    -1.14706764     0.00000000
    -2.91912963    -1.55346452     0.00000000
    -2.24834927    -1.72249977     0.00000000
    -1.68841212    -1.65536584     0.00000000
    -1.18023321    -1.47619858     0.00000000
    -0.67287840    -1.15641579     0.00000000
    -0.11096081    -0.65935082     0.00000000
     0.00000000     0.00000000     0.00000000
     0.00000000     0.00000000     0.00000000
    -3.95550734    -0.92721257     0.00000000
    -4.25614276    -1.32360202     0.00000000
    -4.30836575    -1.58684633     0.00000000
    -3.89253054    -1.97267664     0.00000000
    -3.34931962    -1.97558599     0.00000000
    -2.11352614    -2.29847023     0.00000000
    -1.14757934    -1.28294760     0.00000000
    -0.20870306    -0.70550343     0.00000000
     0.62499739     0.08854891     0.00000000
    -4.25574023    -0.68259626     0.00000000
    -5.55324200    -1.01154973     0.00000000
    -5.84222369    -1.61970687     0.00000000
    -6.31501716    -1.93275753     0.00000000
    -5.63723987    -3.25624876     0.00000000
    -4.57538897    -3.41337201     0.00000000
    -2.33340489    -3.33224626     0.00000000
    -0.58358264    -1.48159775     0.00000000
     0.30156180    -0.55294487     0.00000000
    -4.45767510    -0.43419083     0.00000000
    -6.14111279    -0.79920591     0.00000000
    -7.56105730    -1.20868378     0.00000000
    -7.79205166    -2.37876684     0.00000000
    -8.98347258    -3.19840766     0.00000000
    -7.97661529    -6.15159895     0.00000000
    -5.31452330    -5.70801893     0.00000000
    -2.36002175    -3.89293083     0.00000000
    -0.01429630    -0.10588905     0.00000000
    -4.59432487    -0.15006013     0.00000000
    -7.05504345    -0.38051502     0.00000000
    -8.03524051    -1.00586013     0.00000000
   -10.19075209    -1.81362867     0.00000000
   -10.67394010    -3.81256876     0.00000000
   -14.03300131    -5.67372323     0.00000000
   -12.72746928   -12.19292614     0.00000000
    -4.62541788    -7.43150115     0.00000000
    -1.65963584     0.18459414     0.00000000
    -4.66352134     0.13577871     0.00000000
    -6.97205191     0.04090294     0.00000000
    -9.24039049    -0.47757832     0.00000000
   -10.30189729    -1.34105206     0.00000000
   -14.07944416    -2.88395456     0.00000000
   -16.12193633    -5.36409650     0.00000000
   -28.23056878    -9.75281247     0.00000000
   -21.54124450   -19.90695509     0.00000000
     0.00000000     0.00000000     0.00000000
    -4.66933571     0.46338281     0.00000000
    -7.16045714     0.44121679     0.00000000
    -8.76247057     0.20468989     0.00000000
   -11.20590673    -0.63250680     0.00000000
   -13.88234044    -1.33766922     0.00000000
   -20.15829218    -3.54374821     0.00000000
   -28.43837798    -4.50283853     0.00000000
   -49.28155621   -13.68052952     0.00000000
   -50.33789596   -17.32656743     0.00000000
    -4.62434746     0.76998288     0.00000000
    -6.52089377     0.94936025     0.00000000
    -8.96866027     0.66011573     0.00000000
    -9.52284059     0.63443276     0.00000000
   -14.21169225    -0.40543642     0.00000000
   -16.93110022     0.33924396     0.00000000
   -32.28342877    -0.90230794     0.00000000
   -43.19813396     1.83532895     0.00000000
   -77.45021988   -12.10909157     0.00000000
    -4.54727907     1.05315643     0.00000000
    -5.92947207     1.29317290     0.00000000
    -7.26639410     1.46488948     0.00000000
    -8.09644224     1.16639881     0.00000000
   -11.32668886     1.60553246     0.00000000
   -13.38310790     1.07066402     0.00000000
   -20.11797027     4.45613880     0.00000000
   -31.17617734     3.14413848     0.00000000
   -51.42323616    10.35782900     0.00000000
    -4.35578983     1.33257256     0.00000000
    -4.78992399     1.73279741     0.00000000
    -5.59102918     1.75175706     0.00000000
    -5.43512647     2.16925204     0.00000000
    -7.04831761     1.94327545     0.00000000
    -7.52639121     2.45794369     0.00000000
   -10.48311820     2.93084410     0.00000000
   -13.05415416     6.40963795     0.00000000
   -20.90848631     3.68569057     0.00000000
    -4.15201115     1.59840794     0.00000000
    -3.44004317     2.02726467     0.00000000
    -2.85853009     2.23487883     0.00000000
    -2.31016989     2.23884336     0.00000000
    -1.69529127     2.12158565     0.00000000
    -0.97506037     1.83532818     0.00000000
     0.04856488     0.94811802     0.00000000
     0.00000000     0.00000000     0.00000000
     0.00000000     0.00000000     0.00000000
    -3.64188091    -1.10720540     0.16304390
    -2.89868927    -1.53995964     0.24653184
    -2.22595697    -1.70130902     0.25426874
    -1.67747963    -1.63905773     0.23174500
    -1.17608818    -1.46664836     0.18444086
    -0.66629992    -1.16616944     0.13777768
    -0.08593923    -0.66173678     0.07791884
     0.00000000     0.00000000     0.00000000
     0.00000000     0.00000000     0.00000000
    -3.97489237    -0.97622770     0.20066073
    -4.21401507    -1.29483266     0.33081112
    -4.15458978    -1.60583843     0.35711413
    -3.83778881    -1.91181891     0.34113997
    -3.17493797    -1.96517571     0.29824809
    -2.11122886    -2.23848007     0.25720873
    -1.02452831    -1.26729505     0.07542831
    -0.42268792    -0.67601548    -0.10668254
     0.76720714     0.01631791    -0.03421333
    -4.25145551    -0.72930050     0.24374868
    -5.45391603    -1.00129415     0.41041427
    -5.66857255    -1.59130825     0.41397503
    -6.06071228    -1.89844813     0.46002003
    -5.43847443    -3.11507028     0.46274959
    -4.29968159    -3.28104150     0.40425093
    -2.32466186    -3.18363592     0.19129988
    -0.44409698    -1.32578899    -0.04661319
     0.23083011    -0.52318361    -0.07839400
    -4.44277041    -0.45425041     0.27656306
    -6.04498470    -0.79777636     0.45148005
    -7.29398825    -1.18359583     0.47749319
    -7.52946284    -2.30436910     0.54785546
    -8.51629567    -3.04651143     0.67045578
    -7.58003324    -5.80015572     0.80228087
    -4.87205410    -5.26958731     0.65523876
    -2.17302413    -3.65191790     0.30360090
     0.02216129    -0.15084428    -0.09145552
    -4.56994396    -0.15826648     0.28831316
    -6.92698955    -0.37878426     0.47170271
    -7.78598651    -0.98607187     0.51201896
    -9.80298942    -1.73232720     0.64874658
   -10.15448204    -3.64417068     0.86633778
   -13.10253528    -5.26641648     1.39265314
   -11.59600478   -11.27398921     2.00861753
    -4.06420761    -6.83601985     1.08899173
    -1.34578033     0.17244604     0.10253420
    -4.64053609     0.14272366     0.29821581
    -6.84767436     0.02691698     0.46331292
    -8.96097367    -0.44232915     0.54347848
    -9.92196157    -1.30578354     0.68123445
   -13.36949906    -2.69852141     1.07758899
   -15.00146559    -5.06531875     1.85508055
   -25.50645434    -8.76229397     3.77100261
   -18.98494528   -18.10282856     4.33244577
     0.00000000     0.00000000     0.00000000
    -4.64420285     0.45884089     0.30249924
    -7.22588329     0.44353555     0.45584368
    -8.08495926     0.22016875     0.56670841
   -11.27738315    -0.60024688     0.68099011
   -12.50079984    -1.20087222     1.22744360
   -19.55531344    -3.39912652     2.05801903
   -23.82006033    -3.92373491     4.79174891
   -44.33043500   -12.03643323     8.26382252
   -45.43273244   -16.32977158     8.41604479
    -4.60992662     0.76952192     0.29229547
    -6.72646703     0.91833418     0.40620878
    -7.99468024     0.67830017     0.57630184
    -9.99759551     0.62155777     0.61032275
   -12.30688129    -0.32928604     1.25975566
   -17.16493288     0.24881938     1.75850227
   -26.51396994    -0.88776576     4.57885397
   -38.94292306     1.86280581     8.67245289
   -69.93549861   -11.10150373    10.12157244
    -4.53044201     1.05917789     0.28495052
    -6.21912078     1.28732874     0.34902657
    -6.18182669     1.42716456     0.53902386
    -8.79996017     1.21480564     0.53823839
    -9.40371997     1.49191079     1.07319573
   -14.07188862     1.02638262     1.23554889
   -15.39630985     3.93279510     3.08874416
   -29.26330635     2.47299812     5.82002276
   -44.83804790    10.41159982     7.55439228
    -4.33248110     1.31870959     0.27561749
    -4.95016982     1.66124297     0.25636112
    -4.92214431     1.71644000     0.45684492
    -5.87613497     2.13099875     0.46860738
    -5.88376943     1.79466527     0.64214816
    -7.96744831     2.33047558     0.75608379
    -8.33598172     2.43007218     1.15082883
   -12.18261341     5.72136653     2.71456169
   -17.69297797     3.25570246     3.07924991
    -4.07837531     1.48642667     0.23264154
    -3.45694035     1.96402785     0.30719970
    -2.86347969     2.17572175     0.33281067
    -2.29539272     2.17694094     0.35222869
    -1.65693859     2.04346322     0.38345299
    -0.91121174     1.68956753     0.35824736
     0.02684006     0.83450895     0.22267377
     0.00000000     0.00000000     0.00000000
     0.00000000     0.00000000     0.00000000
    -3.62869473    -1.02591900     0.34619057
    -2.92680901    -1.51508494     0.51153737
    -2.26085253    -1.67074112     0.53074786
    -1.72835792    -1.63027566     0.47874892
    -1.22481773    -1.48081132     0.40024921
    -0.70804874    -1.19102835     0.30724733
    -0.10008991    -0.69720646     0.18003159
     0.00000000     0.00000000     0.00000000
     0.00000000     0.00000000     0.00000000
    -3.91923811    -1.01263465     0.45856529
    -4.03807947    -1.23282976     0.61243898
    -3.95175281    -1.60123809     0.71817803
    -3.51126324    -1.78055029     0.66932486
    -3.02706326    -1.92905498     0.59114417
    -1.84608776    -2.07219541     0.48068849
    -1.05922057    -1.29895507     0.19670008
    -0.45306605    -0.52095300    -0.11321263
     0.44074600    -0.01488609    -0.18849101
    -4.21965844    -0.77590494     0.53848898
    -5.16439079    -0.93682307     0.70382090
    -5.23415016    -1.52578493     0.85010772
    -5.52227040    -1.77252073     0.85159287
    -4.84051266    -2.74956440     0.87972548
    -3.89292787    -3.00078706     0.71961195
    -1.93289478    -2.77017783     0.40003298
    -0.53565595    -1.09748567    -0.06338813
     0.35732809    -0.61214351    -0.14651993
    -4.39582614    -0.45585703     0.57106886
    -5.70803560    -0.76544975     0.82956225
    -6.60985026    -1.10500314     0.90851981
    -6.75685031    -2.07302467     1.05718820
    -7.46730179    -2.65540238     1.17426064
    -6.45797007    -4.84111945     1.38918472
    -4.34071949    -4.42820222     1.06021791
    -1.60353612    -3.07642960     0.39629813
    -0.02863221     0.06130039    -0.18274686
    -4.51241882    -0.16464408     0.60083650
    -6.48898485    -0.36083857     0.86435710
    -7.13373449    -0.89708170     0.98687427
    -8.65551136    -1.52638777     1.19158295
    -8.79519382    -3.11454119     1.52054896
   -10.76128170    -4.24596363     2.24377033
    -8.75732788    -8.80039558     3.04733114
    -2.83597301    -5.41056161     1.59974273
    -0.69601132    -0.17716793     0.18767006
    -4.57694211     0.14711051     0.60231077
    -6.44959470     0.02116549     0.88628041
    -8.11564993    -0.38559167     1.01094666
    -8.80556230    -1.13241401     1.27487996
   -11.43100065    -2.26074155     1.83506478
   -11.93678436    -4.15431020     2.96203533
   -19.09325166    -6.37574025     5.57313592
   -13.41730244   -13.74242683     5.92949069
     0.00000000     0.00000000     0.00000000
    -4.59288014     0.45660570     0.60328174
    -6.56952663     0.41815885     0.89245351
    -7.68889398     0.21117289     0.97362572
    -9.47421222    -0.44710243     1.41143346
   -11.10442474    -1.05268593     1.81623964
   -14.94582842    -2.71906291     3.64533695
   -16.87588475    -3.21801397     6.31285446
   -28.64525912    -7.77930410    10.75278715
   -33.37356985   -12.99225380    13.94750059
    -4.56561216     0.75804925     0.59604204
    -6.03633350     0.85787816     0.86267043
    -7.77956082     0.64170257     0.87547423
    -8.09572984     0.65169906     1.50503708
   -11.30817332    -0.31107994     1.55070413
   -12.31453011     0.17612399     3.70804089
   -21.29630931    -1.30498844     5.42314855
   -20.60711909     1.94680167    11.15810765
   -52.87824689    -8.58992597    18.12145470
    -4.45525201     1.05960288     0.60043471
    -5.42943447     1.12695801     0.75041540
    -6.31837821     1.39043353     0.84732567
    -6.90923945     1.15471666     1.34146950
    -9.09522087     1.29362043     1.31430986
    -9.99016766     0.65536547     2.78428220
   -13.10362996     2.67470275     3.77662727
   -16.23273532     1.08081938     6.79529694
   -33.60012305     8.71786124    13.40632730
    -4.21174298     1.27586482     0.54460230
    -4.41610007     1.53078359     0.67400571
    -5.14183787     1.63117406     0.71939635
    -4.62593188     1.97133058     1.12196246
    -5.88783911     1.63627217     0.98731728
    -5.69006217     1.79187356     1.57271904
    -7.93231882     1.68625597     1.90481844
    -6.93704860     4.27668037     2.73264096
   -12.29275219     1.84606257     4.93080561
    -4.01998575     1.36265398     0.39909928
    -3.45758249     1.86344217     0.56584977
    -2.84668337     2.07391135     0.63189750
    -2.24205355     2.07083842     0.67493562
    -1.56393789     1.90671602     0.69618802
    -0.84357025     1.52081520     0.60891897
     0.01768158     0.73150071     0.34486699
     0.00000000     0.00000000     0.00000000
     0.00000000     0.00000000     0.00000000
    -3.62185165    -0.93726280     0.52566104
    -2.96152575    -1.44702130     0.77378246
    -2.30332640    -1.60504131     0.80352816
    -1.77095837    -1.58709102     0.73955662
    -1.25629919    -1.45782665     0.63918082
    -0.73124338    -1.17402833     0.50559599
    -0.10356881    -0.70149065     0.30270899
     0.00000000     0.00000000     0.00000000
     0.00000000     0.00000000     0.00000000
    -3.84806209    -0.89476233     0.68069584
    -3.80762768    -1.18007304     0.89679439
    -3.53881397    -1.51836826     1.05011441
    -3.15810426    -1.61557883     0.97024833
    -2.58851455    -1.76882260     0.87628792
    -1.67874576    -1.82618598     0.68093571
    -0.71790447    -1.18354065     0.31092275
    -0.57051943    -0.46107462     0.05403379
     0.05505412    -0.04582777    -0.28246304
    -4.10025930    -0.73676071     0.82026171
    -4.61137387    -0.86100926     0.96012369
    -4.58770722    -1.39614920     1.23948088
    -4.59890810    -1.53934509     1.19845240
    -4.01403324    -2.24892383     1.17615002
    -3.10741367    -2.42848344     0.97338345
    -1.61698597    -2.28996587     0.56223274
    -0.34057080    -0.72415744    -0.07578157
     0.35458010    -0.47175692    -0.05812363
    -4.27171174    -0.48241359     0.90241787
    -5.07001004    -0.64527245     1.09419859
    -5.55415849    -0.99964163     1.34143984
    -5.58505274    -1.72051706     1.42367859
    -5.80457571    -2.01507548     1.46819741
    -4.94878753    -3.58911364     1.65103581
    -3.21604371    -3.11312650     1.11147816
    -1.12859747    -2.35679633     0.37922173
    -0.09181504    -0.03887021    -0.32334777
    -4.38917807    -0.16916852     0.91435104
    -5.75335434    -0.32098658     1.18513704
    -5.91315319    -0.76352661     1.38719523
    -7.00513979    -1.18119778     1.59624113
    -6.68274286    -2.38623628     1.81829830
    -7.62883790    -2.80402524     2.37535327
    -5.63984981    -5.80306342     2.91390592
    -1.71007921    -3.43233623     1.28363212
     0.02480225    -0.21714527     0.16314338
    -4.43893679     0.12878769     0.90004492
    -5.65776637     0.02927665     1.20258276
    -6.81412797    -0.28230574     1.43527677
    -6.94718025    -0.90090262     1.64957929
    -8.67502113    -1.56416252     2.16505531
    -7.98283396    -2.99994618     2.98039682
   -11.30180161    -3.42531552     4.84281561
    -7.26817796    -8.73796329     5.11837247
     0.00000000     0.00000000     0.00000000
    -4.45686056     0.40967307     0.92451959
    -5.97667053     0.37794917     1.19553504
    -5.98955681     0.22110629     1.48288621
    -7.93202535    -0.26132939     1.62303031
    -7.70920354    -0.76594970     2.41011341
   -10.71051916    -1.85925816     3.18933084
    -7.22431597    -2.19090072     5.80736753
   -16.76199394    -4.29059138     7.81979540
   -17.95008744    -6.50313470    11.62336344
    -4.42346423     0.71592018     0.94603107
    -5.46651231     0.75614488     1.05069045
    -6.15548516     0.63790946     1.50676331
    -6.74785677     0.60083180     1.53473023
    -8.09113683    -0.17913149     2.44193004
    -8.50303114     0.00516969     2.80107685
   -11.47245838    -1.24543955     5.90162325
   -11.38450632     0.50556724     6.34286376
   -24.10308701    -4.08451187    17.47283008
    -4.30410391     0.97704298     0.86986776
    -5.15893482     1.03241417     1.00364116
    -4.77121396     1.33674111     1.50645716
    -6.23253993     0.91215306     1.29691286
    -6.07479425     1.26382770     2.33421248
    -8.02662077    -0.00253285     1.93859451
    -5.00233371     1.85556061     4.71478892
   -13.03677202    -0.91777362     3.86036387
   -13.62065827     6.14082303    11.52564172
    -4.10645742     1.14081153     0.71533401
    -4.33832310     1.42764332     0.89214061
    -4.06044341     1.51993478     1.25701321
    -4.50214765     1.73509972     1.24545714
    -3.86691480     1.36253805     1.61513992
    -5.10718730     1.40379722     1.55856425
    -3.35351930     0.69904127     2.00046776
    -6.09126540     2.88935552     2.95293197
    -5.82486730    -0.08366723     2.98726357
    -3.96879217     1.24229094     0.55170422
    -3.44523065     1.72356719     0.82456446
    -2.82220110     1.90586735     0.95084985
    -2.19252963     1.89491757     1.01393085
    -1.49835530     1.71986148     1.00084203
    -0.79907923     1.34581762     0.83187636
     0.01052627     0.65318932     0.44940108
     0.00000000     0.00000000     0.00000000
     0.00000000     0.00000000     0.00000000
    -3.62682425    -0.82873301     0.69130666
    -2.99755220    -1.32849272     1.02077425
    -2.34608623    -1.49014887     1.07497429
    -1.80282072    -1.49688841     1.01017197
    -1.27042916    -1.38428200     0.88983828
    -0.74051767    -1.11160010     0.70510611
    -0.10794617    -0.67574638     0.42568689
     0.00000000     0.00000000     0.00000000
     0.00000000     0.00000000     0.00000000
    -3.75634014    -0.73243386     0.84430406
    -3.47331212    -1.08410067     1.18805414
    -3.07220112    -1.33875316     1.30668614
    -2.50857627    -1.42351667     1.29490182
    -2.17127788    -1.45775903     1.09409075
    -1.13583360    -1.44440411     0.90965888
    -0.68679241    -0.94017127     0.44398807
     0.01046356    -0.29518253     0.09212764
    -0.43368348    -0.06023814    -0.16138726
    -3.87652719    -0.60587387     0.99895098
    -3.90553050    -0.81251827     1.27748669
    -3.66398716    -1.15448887     1.52582239
    -3.39770129    -1.25447891     1.47300051
    -2.78087395    -1.58940217     1.40986973
    -2.20695317    -1.64538677     1.07471070
    -0.73720554    -1.54842046     0.73167497
    -0.53631649    -0.33392573    -0.09357128
     0.57236703    -0.36000473    -0.06296393
    -3.99926943    -0.44387280     1.14571949