# vtk DataFile Version 3.0
Example VTK
ASCII
DATASET UNSTRUCTURED_GRID
POINTS  1313 float
 -0.467632705876E+02 -0.153290600720E+02  0.000000000000E+00
 -0.389355843919E+02 -0.212771202778E+02  0.000000000000E+00
 -0.311227533261E+02 -0.249778758897E+02  0.000000000000E+00
 -0.233462411162E+02 -0.272840298815E+02  0.000000000000E+00
 -0.155799633300E+02 -0.285411949559E+02  0.000000000000E+00
 -0.781317723784E+01 -0.288708539549E+02  0.000000000000E+00
 -0.279818228951E-01 -0.282910570796E+02  0.000000000000E+00
  0.485806477600E+01 -0.266469127900E+02  0.000000000000E+00
  0.971612955200E+01 -0.247938255800E+02  0.000000000000E+00
 -0.492520706060E+02 -0.122622944349E+02  0.000000000000E+00
 -0.390012565787E+02 -0.169997086001E+02  0.000000000000E+00
 -0.312340181161E+02 -0.199600951769E+02  0.000000000000E+00
 -0.234786004212E+02 -0.218085000768E+02  0.000000000000E+00
 -0.157327990492E+02 -0.228149633490E+02  0.000000000000E+00
 -0.799611207125E+01 -0.230823099975E+02  0.000000000000E+00
 -0.286254289625E+00 -0.226045297069E+02  0.000000000000E+00
  0.494703722730E+01 -0.217603926926E+02  0.000000000000E+00
  0.101821583880E+02 -0.206706976163E+02  0.000000000000E+00
 -0.501378911630E+02 -0.919123039706E+01  0.000000000000E+00
 -0.390707696116E+02 -0.127268363968E+02  0.000000000000E+00
 -0.313209818727E+02 -0.149489277610E+02  0.000000000000E+00
 -0.235871813163E+02 -0.163394088248E+02  0.000000000000E+00
 -0.158609742893E+02 -0.170949438445E+02  0.000000000000E+00
 -0.814362096434E+01 -0.172875382679E+02  0.000000000000E+00
 -0.423091559688E+00 -0.169264455095E+02  0.000000000000E+00
  0.513435224609E+01 -0.168454942008E+02  0.000000000000E+00
  0.106904535602E+02 -0.165558999161E+02  0.000000000000E+00
 -0.506667305882E+02 -0.612763910355E+01  0.000000000000E+00
 -0.391373162698E+02 -0.845722482737E+01  0.000000000000E+00
 -0.313925431255E+02 -0.993922782461E+01  0.000000000000E+00
 -0.236702948580E+02 -0.108679806903E+02  0.000000000000E+00
 -0.159566484929E+02 -0.113719462709E+02  0.000000000000E+00
 -0.823828971679E+01 -0.114987529267E+02  0.000000000000E+00
 -0.494321122893E+00 -0.112586843379E+02  0.000000000000E+00
  0.538239451722E+01 -0.119210573572E+02  0.000000000000E+00
  0.112578490576E+02 -0.124453762734E+02  0.000000000000E+00
 -0.509576364603E+02 -0.304283555639E+01  0.000000000000E+00
 -0.391861429579E+02 -0.419639832526E+01  0.000000000000E+00
 -0.314453572301E+02 -0.493016597769E+01  0.000000000000E+00
 -0.237274554759E+02 -0.539347764818E+01  0.000000000000E+00
 -0.160187111755E+02 -0.564675626094E+01  0.000000000000E+00
 -0.829727785336E+01 -0.571618981090E+01  0.000000000000E+00
 -0.530729408112E+00 -0.560696494261E+01  0.000000000000E+00
  0.569139513534E+01 -0.700607801290E+01  0.000000000000E+00
  0.118847775232E+02 -0.834007707382E+01  0.000000000000E+00
 -0.510604324167E+02  0.311730418697E-01  0.000000000000E+00
 -0.392134123939E+02  0.683930070834E-01  0.000000000000E+00
 -0.314730263738E+02  0.770612935092E-01  0.000000000000E+00
 -0.237562692660E+02  0.843982174264E-01  0.000000000000E+00
 -0.160496894525E+02  0.816598066369E-01  0.000000000000E+00
 -0.833049588955E+01  0.658488969977E-01  0.000000000000E+00
 -0.567521837270E+00  0.385578887319E-01  0.000000000000E+00
  0.598472284401E+01 -0.212746947962E+01  0.000000000000E+00
  0.126666666700E+02 -0.428227116300E+01  0.000000000000E+00
 -0.509847616071E+02  0.313123119694E+01  0.000000000000E+00
 -0.392174116367E+02  0.432634842671E+01  0.000000000000E+00
 -0.314748564910E+02  0.508751244808E+01  0.000000000000E+00
 -0.237554470259E+02  0.556514935675E+01  0.000000000000E+00
 -0.160493185414E+02  0.581533824887E+01  0.000000000000E+00
 -0.833662363940E+01  0.585448133231E+01  0.000000000000E+00
 -0.592584049210E+00  0.569496151857E+01  0.000000000000E+00
  0.536326067310E+01  0.363130062231E+01  0.000000000000E+00
  0.113354148418E+02  0.154838985080E+01  0.000000000000E+00
 -0.507185914191E+02  0.620416012110E+01  0.000000000000E+00
 -0.392028597566E+02  0.859489673108E+01  0.000000000000E+00
 -0.314528618735E+02  0.100984298150E+02  0.000000000000E+00
 -0.237265328219E+02  0.110485275983E+02  0.000000000000E+00
 -0.160149404702E+02  0.115543937820E+02  0.000000000000E+00
 -0.830561205287E+01  0.116536226057E+02  0.000000000000E+00
 -0.572608622120E+00  0.113613165074E+02  0.000000000000E+00
  0.481440104846E+01  0.942142376929E+01  0.000000000000E+00
  0.102162402050E+02  0.735601711530E+01  0.000000000000E+00
 -0.502329582500E+02  0.929407084341E+01  0.000000000000E+00
 -0.391715175645E+02  0.128617662667E+02  0.000000000000E+00
 -0.314160188899E+02  0.151135224719E+02  0.000000000000E+00
 -0.236743731651E+02  0.165291864203E+02  0.000000000000E+00
 -0.159424047139E+02  0.172965949194E+02  0.000000000000E+00
 -0.822584623696E+01  0.174651638802E+02  0.000000000000E+00
 -0.494929788423E+00  0.170309113570E+02  0.000000000000E+00
  0.434610370044E+01  0.152023147253E+02  0.000000000000E+00
  0.919165779045E+01  0.131794361474E+02  0.000000000000E+00
 -0.493730333109E+02  0.123708611635E+02  0.000000000000E+00
 -0.391449216606E+02  0.171407578410E+02  0.000000000000E+00
 -0.313719503555E+02  0.201269183734E+02  0.000000000000E+00
 -0.236081550656E+02  0.220044023115E+02  0.000000000000E+00
 -0.158390275977E+02  0.230329325877E+02  0.000000000000E+00
 -0.807553033987E+01  0.232915419569E+02  0.000000000000E+00
 -0.345262724559E+00  0.227088573934E+02  0.000000000000E+00
  0.395271566685E+01  0.209600374681E+02  0.000000000000E+00
  0.826056470479E+01  0.189907288626E+02  0.000000000000E+00
 -0.469259832850E+02  0.154561431711E+02  0.000000000000E+00
 -0.391048542372E+02  0.214150305439E+02  0.000000000000E+00
 -0.313237283198E+02  0.251416881742E+02  0.000000000000E+00
 -0.235436550783E+02  0.274729532323E+02  0.000000000000E+00
 -0.157492738296E+02  0.287531276729E+02  0.000000000000E+00
 -0.791110082974E+01  0.290920734183E+02  0.000000000000E+00
  0.855966893601E-02  0.283841742848E+02  0.000000000000E+00
  0.371063367600E+01  0.266469127900E+02  0.000000000000E+00
  0.742126735300E+01  0.247938255800E+02  0.000000000000E+00
 -0.473766967116E+02 -0.151277747126E+02  0.239312711804E+01
 -0.389346110644E+02 -0.210134723414E+02  0.332677294813E+01
 -0.311225417906E+02 -0.246687531148E+02  0.389902905073E+01
 -0.233496191485E+02 -0.269488317947E+02  0.425624455479E+01
 -0.155852577669E+02 -0.281920573800E+02  0.444767287690E+01
 -0.781779081687E+01 -0.285217520156E+02  0.450102064747E+01
 -0.275385183928E-01 -0.279455912389E+02  0.441781808450E+01
  0.487577938100E+01 -0.263526544000E+02  0.396427664200E+01
  0.974471668600E+01 -0.245950934400E+02  0.257295191300E+01
 -0.492503498976E+02 -0.121932552408E+02  0.266378157099E+01
 -0.389926581382E+02 -0.168813973101E+02  0.370323708562E+01
 -0.312314234002E+02 -0.198309226421E+02  0.434692407485E+01
 -0.234748566716E+02 -0.216671664387E+02  0.474785424354E+01
 -0.157268957435E+02 -0.226688774417E+02  0.496602205343E+01
 -0.798712280161E+01 -0.229351636146E+02  0.502489800391E+01
 -0.274168855397E+00 -0.224582206961E+02  0.492274582799E+01
  0.496818947197E+01 -0.216354958194E+02  0.443195126205E+01
  0.101999812244E+02 -0.206133117152E+02  0.296475233034E+01
 -0.500850237470E+02 -0.918065504774E+01  0.287668274671E+01
 -0.390648461333E+02 -0.126973564792E+02  0.399012968948E+01
 -0.313113071416E+02 -0.149188094594E+02  0.468689062780E+01
 -0.235779145808E+02 -0.163080181396E+02  0.512322275002E+01
 -0.158485941612E+02 -0.170626800753E+02  0.535905564271E+01
 -0.812844606163E+01 -0.172551136134E+02  0.541884346876E+01
 -0.405980875448E+00 -0.168925565163E+02  0.530629124228E+01
  0.515437121158E+01 -0.168189682482E+02  0.478846725601E+01
  0.107029632368E+02 -0.165607774460E+02  0.323281282431E+01
 -0.505905522753E+02 -0.613543433329E+01  0.302092712010E+01
 -0.391299889493E+02 -0.846757377473E+01  0.418401904390E+01
 -0.313808246255E+02 -0.995247838501E+01  0.491352793773E+01
 -0.236571806179E+02 -0.108841543175E+02  0.537274070391E+01
 -0.159413033435E+02 -0.113892084383E+02  0.562019306477E+01
 -0.822129610275E+01 -0.115157358650E+02  0.568117861407E+01
 -0.476639884787E+00 -0.112737393545E+02  0.556292801253E+01
  0.540004380202E+01 -0.119363674770E+02  0.502037412847E+01
  0.112682485139E+02 -0.124611530241E+02  0.336035337870E+01
 -0.508707382074E+02 -0.305064741916E+01  0.309094475850E+01
 -0.391776865652E+02 -0.421194061763E+01  0.427765478324E+01
 -0.314327479894E+02 -0.494908266350E+01  0.502192118200E+01
 -0.237126980685E+02 -0.541543436565E+01  0.549120947779E+01
 -0.160019046695E+02 -0.566977603968E+01  0.574475009837E+01
 -0.827970726386E+01 -0.573847834375E+01  0.580692283136E+01
 -0.514317297057E+00 -0.562732473340E+01  0.568528726589E+01
  0.570478354902E+01 -0.702436688937E+01  0.512012698983E+01
  0.118930617781E+02 -0.834467869640E+01  0.333848370257E+01
 -0.509731820140E+02  0.317970530444E-01  0.308534823488E+01
 -0.392042319582E+02  0.646275002717E-01  0.426658240176E+01
 -0.314602934555E+02  0.717540229348E-01  0.500858707005E+01
 -0.237411008889E+02  0.777725049207E-01  0.547657867138E+01
 -0.160323568104E+02  0.749201260288E-01  0.573040768428E+01
 -0.831241788117E+01  0.603463890447E-01  0.579309627473E+01
 -0.550636221589E+00  0.350730676448E-01  0.567128311689E+01
  0.599605092116E+01 -0.212916702717E+01  0.508719318173E+01
  0.126666666700E+02 -0.428227116300E+01  0.316666666700E+01
 -0.508958687054E+02  0.314019363877E+01  0.309271395361E+01
 -0.392085823586E+02  0.433367337514E+01  0.427866348167E+01
 -0.314615077365E+02  0.509547574849E+01  0.502289146714E+01
 -0.237399419531E+02  0.557354066473E+01  0.549356966527E+01
 -0.160312658104E+02  0.582419107670E+01  0.574914910943E+01
 -0.831694243869E+01  0.586474838575E+01  0.581226228827E+01
[...]
POINT_DATA      1313
VECTORS velocities float 
    -3.82017237    -1.13472565     0.00000000
    -3.03327281    -1.56532442     0.00000000
    -2.32334372    -1.74742143     0.00000000
    -1.73633134    -1.68889620     0.00000000
    -1.20576496    -1.51788416     0.00000000
    -0.67356022    -1.20457714     0.00000000
    -0.08847559    -0.68721363     0.00000000
     0.00000000     0.00000000     0.00000000
     0.00000000     0.00000000     0.00000000
    -4.12076585    -0.90522456     0.00000000
    -4.39059408    -1.33477858     0.00000000
    -4.43228441    -1.59826528     0.00000000
    -3.98389738    -2.00995246     0.00000000
    -3.41373330    -2.01117190     0.00000000
    -2.15418812    -2.35707601     0.00000000
    -1.18056233    -1.27975934     0.00000000
    -0.21151743    -0.70182657     0.00000000
     0.59121604     0.10032225     0.00000000
    -4.41979534    -0.66853149     0.00000000
    -5.69232794    -1.02214715     0.00000000
    -5.97622455    -1.64848162     0.00000000
    -6.44867617    -1.97538401     0.00000000
    -5.73182056    -3.33955173     0.00000000
    -4.62994121    -3.45889725     0.00000000
    -2.33024527    -3.33769600     0.00000000
    -0.57280590    -1.45399339     0.00000000
     0.29662273    -0.52632071     0.00000000
    -4.62407801    -0.43389569     0.00000000
    -6.28423824    -0.80655696     0.00000000
    -7.73761699    -1.23630419     0.00000000
    -7.95423938    -2.45019092     0.00000000
    -9.15038295    -3.30128614     0.00000000
    -8.03342847    -6.29180559     0.00000000
    -5.24865579    -5.71506746     0.00000000
    -2.30343148    -3.82428760     0.00000000
     0.01641788    -0.08478146     0.00000000
    -4.75944851    -0.16640162     0.00000000
    -7.21741030    -0.37652383     0.00000000
    -8.21171601    -1.04202267     0.00000000
   -10.41909976    -1.88443780     0.00000000
   -10.89753542    -3.95808139     0.00000000
   -14.24561324    -5.89003001     0.00000000
   -12.70842755   -12.40173568     0.00000000
    -4.44996406    -7.31978774     0.00000000
    -1.64375349     0.25673630     0.00000000
    -4.82883212     0.12311897     0.00000000
    -7.13654329     0.04022996     0.00000000
    -9.46366661    -0.49170313     0.00000000
   -10.55327085    -1.41789557     0.00000000
   -14.40408011    -3.03464330     0.00000000
   -16.49230624    -5.61278430     0.00000000
   -28.66058776   -10.12553943     0.00000000
   -21.50237250   -20.11779969     0.00000000
     0.00000000     0.00000000     0.00000000
    -4.84607742     0.42997522     0.00000000
    -7.34137419     0.45638122     0.00000000
    -8.98308775     0.20305198     0.00000000
   -11.50629496    -0.68600830     0.00000000
   -14.26450705    -1.47082117     0.00000000
   -20.66393449    -3.77682551     0.00000000
   -29.22843841    -4.78594553     0.00000000
   -50.13518201   -14.04004277     0.00000000
   -50.56581297   -17.28737824     0.00000000
    -4.80790731     0.71655214     0.00000000
    -6.68938818     0.98274483     0.00000000
    -9.21032900     0.67302856     0.00000000
    -9.81069129     0.62577911     0.00000000
   -14.62765811    -0.50608893     0.00000000
   -17.47876851     0.18864487     0.00000000
   -33.09536562    -1.09280291     0.00000000
   -44.21100114     1.71474976     0.00000000
   -78.37994363   -12.56364359     0.00000000
    -4.73017612     0.99543041     0.00000000
    -6.11027495     1.32664709     0.00000000
    -7.48360340     1.50622997     0.00000000
    -8.36461643     1.18172377     0.00000000
   -11.69967188     1.57744998     0.00000000
   -13.83260409     0.98460664     0.00000000
   -20.68103162     4.37441154     0.00000000
   -31.79774797     3.10585479     0.00000000
   -52.26313231    10.29579733     0.00000000
    -4.53947391     1.27832966     0.00000000
    -4.95211110     1.76658034     0.00000000
    -5.76938939     1.80514999     0.00000000
    -5.61455398     2.22574353     0.00000000
    -7.29862433     1.97535482     0.00000000
    -7.84528466     2.46623943     0.00000000
   -10.76070263     2.82016968     0.00000000
   -13.11572226     6.29270878     0.00000000
   -20.94754684     3.63320018     0.00000000
    -4.34509760     1.54994164     0.00000000
    -3.59470193     2.03964886     0.00000000
    -2.96186314     2.28563924     0.00000000
    -2.37842433     2.30919172     0.00000000
    -1.73536164     2.19864003     0.00000000
    -0.98734538     1.90659773     0.00000000
     0.03935000     0.97753381     0.00000000
     0.00000000     0.00000000     0.00000000
     0.00000000     0.00000000     0.00000000
    -3.80569914    -1.07911587     0.15981103
    -3.03003704    -1.54078218     0.23986933
    -2.32267223    -1.71987953     0.24631669
    -1.74814919    -1.66970407     0.22601864
    -1.22436176    -1.50733064     0.18202095
    -0.68898236    -1.21174477     0.13918992
    -0.08763205    -0.68916889     0.08158773
     0.00000000     0.00000000     0.00000000
     0.00000000     0.00000000     0.00000000
    -4.14157761    -0.94684671     0.19410630
    -4.34899255    -1.30536333     0.32799717
    -4.27512137    -1.62350008     0.36162042
    -3.93287952    -1.95060722     0.34721821
    -3.23518735    -2.00874852     0.30309087
    -2.15681709    -2.29660112     0.26298672
    -1.05355591    -1.26443613     0.06850093
    -0.43131848    -0.67364378    -0.10427590
     0.74623445     0.01998597    -0.02015094
    -4.41865869    -0.70677969     0.23474741
    -5.58941948    -1.01456016     0.41136125
    -5.80465640    -1.61973875     0.42257940
    -6.19198601    -1.94463556     0.46889558
    -5.53612991    -3.19592121     0.47255091
    -4.35658842    -3.33174732     0.40532755
    -2.32693587    -3.19355601     0.18626683
    -0.42931598    -1.30286683    -0.04920060
     0.22405458    -0.50577031    -0.08000222
    -4.61006224    -0.44503237     0.26630496
    -6.19097615    -0.80827529     0.45703943
    -7.46174880    -1.21298559     0.48884449
    -7.69678923    -2.37312820     0.56283287
    -8.67322095    -3.14901405     0.68031530
    -7.64769887    -5.93241864     0.80869422
    -4.81573341    -5.28044255     0.64284794
    -2.12811799    -3.59476545     0.29066090
     0.05175294    -0.12767406    -0.09383756
    -4.73640330    -0.16457222     0.28148080
    -7.08543095    -0.38061889     0.47410400
    -7.96297343    -1.02034424     0.52735257
   -10.02433028    -1.80382478     0.66180148
   -10.37166202    -3.78096802     0.88632259
   -13.30383405    -5.46998757     1.40606398
   -11.57384080   -11.46235016     2.01685716
    -3.91443624    -6.74182499     1.06320785
    -1.32858972     0.22954713     0.08749431
    -4.80827163     0.12628198     0.29128692
    -7.01151929     0.02847780     0.46607601
    -9.17373627    -0.45983231     0.55632384
   -10.17338314    -1.37851694     0.69816705
   -13.67050237    -2.84360753     1.09615924
   -15.35049790    -5.29330929     1.89899556
   -25.87461632    -9.09878945     3.81612546
   -18.92171731   -18.26970800     4.36310538
     0.00000000     0.00000000     0.00000000
    -4.81953324     0.42874166     0.28932359
    -7.40975834     0.45689442     0.46486168
    -8.29512747     0.21627859     0.57619185
   -11.56572285    -0.65128515     0.69653228
   -12.86591764    -1.32541799     1.25682824
   -20.01631178    -3.62054594     2.09816925
   -24.45274327    -4.15869459     4.94409185
   -45.02560708   -12.34395597     8.38314332
   -45.60587736   -16.31579079     8.50785534
    -4.79059220     0.72730380     0.28422023
    -6.90061479     0.94178375     0.40857183
    -8.21229091     0.69632907     0.58668990
   -10.28833364     0.60364207     0.62263594
   -12.68225026    -0.41241466     1.29240548
   -17.69330152     0.09464947     1.79925137
   -27.11491579    -1.05614652     4.71609844
   -39.78134934     1.77403675     8.88790172
   -70.75703001   -11.52854871    10.11996356
    -4.71209298     1.01116016     0.27993681
    -6.40710732     1.31260748     0.35207004
    -6.37932932     1.46859343     0.55272121
    -9.06730618     1.22677825     0.55411324
    -9.74179694     1.47403282     1.10111952
   -14.50351941     0.93161253     1.26301034
   -15.80237579     3.87659066     3.19726311
   -29.74874982     2.39851693     5.95025940
   -45.55903508    10.39393473     7.64348107
    -4.51732105     1.27319913     0.27438733
    -5.11179382     1.68545966     0.26182170
    -5.07718478     1.77232040     0.46887557
    -6.06560629     2.17283185     0.48033152
    -6.09659578     1.83499618     0.66429142
    -8.27530524     2.31766914     0.77511530
    -8.52466412     2.34457871     1.18171433
   -12.18668523     5.58051145     2.75205618
   -17.68717009     3.20564817     3.11918362
    -4.25304587     1.44345904     0.23490224
    -3.59475595     1.98041447     0.32021347
    -2.94991477     2.22799725     0.35041091
    -2.34432089     2.24615638     0.37108431
    -1.67813030     2.11626455     0.40068352
    -0.90282685     1.75869601     0.37009209
     0.03723333     0.85798542     0.23198572
     0.00000000     0.00000000     0.00000000
     0.00000000     0.00000000     0.00000000
    -3.78963619    -0.99886877     0.33498444
    -3.06076170    -1.51982232     0.50179975
    -2.35949722    -1.69828974     0.52162676
    -1.79802841    -1.67089331     0.47393636
    -1.27031536    -1.53017173     0.40035611
    -0.72826971    -1.24130584     0.31197858
    -0.09971280    -0.72657599     0.18598423
     0.00000000     0.00000000     0.00000000
     0.00000000     0.00000000     0.00000000
    -4.08972057    -0.99045057     0.44191025
    -4.17024890    -1.24072169     0.60883380
    -4.08003656    -1.62778659     0.72277953
    -3.60522141    -1.82574883     0.68061398
    -3.09781034    -1.98186352     0.59772955
    -1.88689133    -2.13371200     0.49568974
    -1.10573144    -1.30455341     0.18754421
    -0.47046312    -0.51910732    -0.11279106
     0.43327479    -0.02139055    -0.17596912
    -4.39176130    -0.75761951     0.51699321
    -5.29449307    -0.95184616     0.70974131
    -5.36828661    -1.55761877     0.86579054
    -5.65297810    -1.82433658     0.86794187
    -4.93830650    -2.82904442     0.90063503
    -3.96201920    -3.06289370     0.72265339
    -1.93466348    -2.78080498     0.39587908
    -0.51311585    -1.08524987    -0.07055301
     0.34481888    -0.60856859    -0.14853259
    -4.56428414    -0.44980662     0.54838945
    -5.85467920    -0.77741591     0.84118109
    -6.77667409    -1.13718945     0.93018901
    -6.91417646    -2.13916322     1.08532076
    -7.62244904    -2.75319181     1.19335558
    -6.52753834    -4.95654003     1.40330154
    -4.32631203    -4.45628370     1.04363157
    -1.57895271    -3.04297126     0.37207780
    -0.00367863     0.07976921    -0.18651497
    -4.68027774    -0.17083508     0.57944411
    -6.63891104    -0.36795128     0.87626705
    -7.30855684    -0.93091790     1.01155128
    -8.85812157    -1.59512470     1.21618001
    -8.99413387    -3.23251841     1.55613917
   -10.93641448    -4.41484268     2.26465491
    -8.74158442    -8.94590179     3.05589032
    -2.72997578    -5.34954761     1.56607449
    -0.68250513    -0.14259606     0.16820547
    -4.74739876     0.12654462     0.58244673
    -6.60641263     0.02145703     0.89705126
    -8.31728958    -0.40756655     1.03272517
    -9.03014570    -1.19635623     1.30753834
   -11.69601886    -2.38651691     1.86429974
   -12.20426291    -4.33404263     3.03117926
   -19.35251341    -6.61181335     5.61763681
   -13.32954053   -13.84430564     5.93636157
     0.00000000     0.00000000     0.00000000
    -4.76781426     0.42376329     0.58636273
    -6.74402835     0.42600811     0.90261732
    -7.88735297     0.20275778     0.99498932
    -9.72568442    -0.49421932     1.43917202
   -11.41210458    -1.15507694     1.86329332
   -15.30156670    -2.90312117     3.71356738
   -17.21946808    -3.37960423     6.46652034
   -28.93522804    -7.95010754    10.85694099
   -33.38944692   -12.97820386    14.07124472
    -4.74505186     0.71667087     0.58427803
    -6.19264602     0.87407552     0.86844587
    -7.97931096     0.65019296     0.89354672
    -8.34974555     0.63839336     1.53631577
   -11.61645767    -0.38595760     1.58911357
   -12.73366243     0.05487993     3.80733486
   -21.64740452    -1.46268857     5.49130741
   -20.83356787     1.92944564    11.43897410
   -53.34901594    -8.88427322    18.17689220
    -4.63682521     1.01112331     0.59434386
    -5.59603918     1.14173549     0.75598024
    -6.50813288     1.41812724     0.86579691
    -7.13732183     1.17150853     1.38052875
    -9.38284637     1.26119331     1.34398901
   -10.31756205     0.60031325     2.86879937
   -13.37105185     2.57354286     3.82802345
   -16.29191829     1.02266030     6.92378315
   -33.97738144     8.72680164    13.56813205
    -4.39268929     1.23018302     0.54680773
    -4.55160280     1.54642490     0.68531438
    -5.29847082     1.67368165     0.74860906
    -4.78093396     2.01080120     1.15129062
    -6.07697537     1.66062949     1.02558260
    -5.91709794     1.78581501     1.61964329
    -8.06880502     1.59972991     1.92444607
    -6.83031723     4.14979955     2.71381475
   -12.14271681     1.78476272     4.97099344
    -4.18755229     1.31372111     0.39952719
    -3.59590258     1.86980920     0.58459531
    -2.93695944     2.11535160     0.65953797
    -2.29374291     2.12849577     0.70544529
    -1.58919821     1.96885171     0.72603376
    -0.83953408     1.58071691     0.63245126
     0.02545031     0.75235189     0.35801266
     0.00000000     0.00000000     0.00000000
     0.00000000     0.00000000     0.00000000
    -3.78201886    -0.91234056     0.50567004
    -3.09749676    -1.45510504     0.76127534
    -2.40533837    -1.64016755     0.79568573
    -1.84079171    -1.63585543     0.73811531
    -1.30126556    -1.51314646     0.64420175
    -0.75069972    -1.22682022     0.51579867
    -0.10350974    -0.73283235     0.31133431
     0.00000000     0.00000000     0.00000000
     0.00000000     0.00000000     0.00000000
    -4.01655045    -0.87851551     0.65464010
    -3.94226781    -1.19061805     0.89043429
    -3.66132893    -1.55369008     1.05784895
    -3.25477143    -1.66712605     0.98572439
    -2.65447313    -1.82794476     0.88794991
    -1.71878168    -1.89253005     0.70347528
    -0.75689824    -1.19207981     0.30556847
    -0.59448145    -0.46448036     0.05799311
     0.04529193    -0.05514684    -0.27666352
    -4.27542943    -0.72698271     0.78822271
    -4.73954688    -0.87776188     0.96779769
    -4.71945196    -1.43354948     1.26281465
    -4.72523973    -1.59555739     1.22158100
    -4.10369486    -2.32480941     1.20466100
    -3.17913201    -2.49372309     0.98869394
    -1.62498740    -2.31517973     0.55977161
    -0.31656909    -0.71877695    -0.08296841
     0.34596659    -0.47702105    -0.05867169
    -4.44456959    -0.47914057     0.86619506
    -5.21732689    -0.66029359     1.10979420
    -5.70848473    -1.03386499     1.36772861
    -5.73187179    -1.78286963     1.46069549
    -5.93675479    -2.10032087     1.49778200
    -5.02711199    -3.68623577     1.67363871
    -3.22320805    -3.14358727     1.09318585
    -1.12773668    -2.34678163     0.35816334
    -0.08321025    -0.03049517    -0.32941085
    -4.55949262    -0.17686913     0.87979589
    -5.90026844    -0.33095090     1.20365472
    -6.07457866    -0.79822646     1.42127142
    -7.18202974    -1.24248592     1.62663399
    -6.84073516    -2.47937366     1.86464595
    -7.77440880    -2.92460025     2.39970433
    -5.63506727    -5.90115984     2.92006263
    -1.65924522    -3.39583416     1.25413383
     0.03641955    -0.20972567     0.14661616
    -4.60961156     0.10740101     0.86902222
    -5.81212996     0.02205572     1.22135003
    -6.98951561    -0.30787431     1.46415093
    -7.13695376    -0.95484864     1.68744620
    -8.87372493    -1.65990861     2.20371758
    -8.16923518    -3.12133387     3.05020043
   -11.44622275    -3.56396633     4.85074514
    -7.19174263    -8.76697191     5.09783153
     0.00000000     0.00000000     0.00000000
    -4.63047700     0.37776503     0.89913726
    -6.13889942     0.37745218     1.20918220
    -6.16629406     0.20823383     1.50895043
    -8.12932682    -0.30069392     1.65788030
    -7.94084712    -0.84160590     2.46862984
   -10.92777113    -1.98645233     3.24260851
    -7.36533417    -2.28931141     5.93367846
   -16.84153191    -4.34609357     7.75861172
   -17.80591802    -6.42803198    11.68371980
    -4.60389670     0.67728095     0.92790807
    -5.61471260     0.75858291     1.05916309
    -6.32196786     0.64168976     1.53981242
    -6.95190420     0.58444804     1.56795835
    -8.31419466    -0.23254544     2.49081389
    -8.75657358    -0.07671638     2.89806917
   -11.68512430    -1.38236501     5.93360502
   -11.33388586     0.49278298     6.36970209
   -24.03432699    -4.22139735    17.53877915
    -4.48207106     0.92981502     0.86017860
    -5.31461615     1.03119893     1.01337956
    -4.94539758     1.35005006     1.52795569
    -6.39913527     0.92270567     1.34382457
    -6.31223854     1.24328611     2.38948330
    -8.18827581    -0.05857138     1.99593139
    -5.19508747     1.81821469     4.81203112
   -13.04524562    -1.06349458     3.74602762
   -13.53515999     6.21289163    11.68448107
    -4.27977991     1.09183625     0.71158599
    -4.47975020     1.42724007     0.90342584
    -4.19133500     1.55178791     1.30166696
    -4.64191315     1.75499772     1.28201554
    -3.99995045     1.39599427     1.67383611
    -5.26868467     1.37516704     1.60239858
    -3.40190340     0.67912291     2.04453032
    -6.04469171     2.74206773     2.87356896
    -5.62908570    -0.15542383     2.99584795
    -4.13209076     1.18921694     0.54784562
    -3.58337294     1.72010209     0.84770597
    -2.91422789     1.93442460     0.98893898
    -2.24653908     1.93927301     1.05716843
    -1.52512404     1.76987174     1.04355558
    -0.79772309     1.39601585     0.86760477
     0.01803727     0.66933611     0.46798031
     0.00000000     0.00000000     0.00000000
     0.00000000     0.00000000     0.00000000
    -3.78727002    -0.80892618     0.66267025
    -3.13580215    -1.34119773     1.00618976
    -2.45046587    -1.53186433     1.07145205
    -1.87295899    -1.55196901     1.01571220
    -1.31408745    -1.44375272     0.90235242
    -0.75904519    -1.16542349     0.72238217
    -0.10765000    -0.70782239     0.43820030
     0.00000000     0.00000000     0.00000000
     0.00000000     0.00000000     0.00000000
    -3.92073449    -0.72012135     0.80931403
    -3.60680614    -1.10219279     1.18185579
    -3.19269838    -1.37973329     1.31563857
    -2.59156629    -1.48136500     1.31871361
    -2.23727237    -1.51608715     1.11133032
    -1.15498692    -1.50785761     0.94260366
    -0.72954910    -0.96132123     0.44676839
    -0.00135658    -0.30482645     0.09862364
    -0.44653185    -0.06701331    -0.16214057
    -4.04716697    -0.60312187     0.96021911
    -4.03914418    -0.83072571     1.28092383
    -3.78983741    -1.19408686     1.55272770
    -3.50451726    -1.31040611     1.50319425
    -2.85034353    -1.65387453     1.44422978
    -2.26279417    -1.70639868     1.10357642
    -0.74336175    -1.57832813     0.74753587
    -0.50455354    -0.32424429    -0.12016208
     0.57223997    -0.36279954    -0.05735431
    -4.17299048    -0.44874223     1.10451546