# vtk DataFile Version 3.0
Example VTK
ASCII
DATASET UNSTRUCTURED_GRID
POINTS  1313 float
 -0.474951653569E+02 -0.155732671522E+02  0.000000000000E+00
 -0.395069607986E+02 -0.216027984201E+02  0.000000000000E+00
 -0.315560254361E+02 -0.253356668858E+02  0.000000000000E+00
 -0.236653844993E+02 -0.276231248052E+02  0.000000000000E+00
 -0.158015129407E+02 -0.288398926660E+02  0.000000000000E+00
 -0.793757496157E+01 -0.291024599752E+02  0.000000000000E+00
 -0.481757416165E-01 -0.284205293284E+02  0.000000000000E+00
  0.485806477600E+01 -0.266469127900E+02  0.000000000000E+00
  0.971612955200E+01 -0.247938255800E+02  0.000000000000E+00
 -0.500438777946E+02 -0.124592007985E+02  0.000000000000E+00
 -0.396290316296E+02 -0.172467530202E+02  0.000000000000E+00
 -0.317517161212E+02 -0.202312168974E+02  0.000000000000E+00
 -0.238981109484E+02 -0.220672228994E+02  0.000000000000E+00
 -0.160614593427E+02 -0.230417333397E+02  0.000000000000E+00
 -0.824134413400E+01 -0.232587474761E+02  0.000000000000E+00
 -0.463551392707E+00 -0.226933999929E+02  0.000000000000E+00
  0.481669087942E+01 -0.217710819499E+02  0.000000000000E+00
  0.101037099647E+02 -0.206576015527E+02  0.000000000000E+00
 -0.509957807208E+02 -0.933879925697E+01  0.000000000000E+00
 -0.397554936900E+02 -0.128952064604E+02  0.000000000000E+00
 -0.319083456523E+02 -0.151371334173E+02  0.000000000000E+00
 -0.240885240314E+02 -0.165214282871E+02  0.000000000000E+00
 -0.162812756334E+02 -0.172544158921E+02  0.000000000000E+00
 -0.848809027716E+01 -0.174058158305E+02  0.000000000000E+00
 -0.690925886296E+00 -0.169773649542E+02  0.000000000000E+00
  0.493573747107E+01 -0.168470685873E+02  0.000000000000E+00
  0.105603054092E+02 -0.165353703435E+02  0.000000000000E+00
 -0.515657243245E+02 -0.621935222938E+01  0.000000000000E+00
 -0.398748463920E+02 -0.855249052099E+01  0.000000000000E+00
 -0.320361940968E+02 -0.100456323882E+02  0.000000000000E+00
 -0.242337350795E+02 -0.109727745626E+02  0.000000000000E+00
 -0.164447666047E+02 -0.114628114907E+02  0.000000000000E+00
 -0.864792383008E+01 -0.115619996091E+02  0.000000000000E+00
 -0.810188048359E+00 -0.112774468775E+02  0.000000000000E+00
  0.515294650969E+01 -0.119082089991E+02  0.000000000000E+00
  0.111134466378E+02 -0.124195668298E+02  0.000000000000E+00
 -0.518876670245E+02 -0.308042182132E+01  0.000000000000E+00
 -0.399603136555E+02 -0.421895096739E+01  0.000000000000E+00
 -0.321292941451E+02 -0.495736368090E+01  0.000000000000E+00
 -0.243330894198E+02 -0.541948479566E+01  0.000000000000E+00
 -0.165506464817E+02 -0.566791468709E+01  0.000000000000E+00
 -0.874742732520E+01 -0.572799851883E+01  0.000000000000E+00
 -0.871884555114E+00 -0.560338851152E+01  0.000000000000E+00
  0.546926567202E+01 -0.698488632283E+01  0.000000000000E+00
  0.117636753750E+02 -0.831231678320E+01  0.000000000000E+00
 -0.520039686794E+02  0.630406109465E-01  0.000000000000E+00
 -0.400073689220E+02  0.114146929594E+00  0.000000000000E+00
 -0.321771174495E+02  0.129157168196E+00  0.000000000000E+00
 -0.243821526032E+02  0.138299661586E+00  0.000000000000E+00
 -0.166025125744E+02  0.132053449388E+00  0.000000000000E+00
 -0.880217134703E+01  0.105144143779E+00  0.000000000000E+00
 -0.931899107469E+00  0.607919846842E-01  0.000000000000E+00
  0.576042132362E+01 -0.211988056433E+01  0.000000000000E+00
  0.126666666700E+02 -0.428227116300E+01  0.000000000000E+00
 -0.519297495888E+02  0.322398514693E+01  0.000000000000E+00
 -0.400132555119E+02  0.444422794477E+01  0.000000000000E+00
 -0.321778304054E+02  0.521846737490E+01  0.000000000000E+00
 -0.243785822142E+02  0.570093744488E+01  0.000000000000E+00
 -0.165996116723E+02  0.594010476029E+01  0.000000000000E+00
 -0.880977645223E+01  0.594874589838E+01  0.000000000000E+00
 -0.970146064976E+00  0.574248808581E+01  0.000000000000E+00
  0.508049133559E+01  0.363893908940E+01  0.000000000000E+00
  0.111572198264E+02  0.155661004132E+01  0.000000000000E+00
 -0.516547535500E+02  0.637067593124E+01  0.000000000000E+00
 -0.399832464890E+02  0.878191830562E+01  0.000000000000E+00
 -0.321352218450E+02  0.103108613834E+02  0.000000000000E+00
 -0.243246527431E+02  0.112672697143E+02  0.000000000000E+00
 -0.165376745767E+02  0.117566682536E+02  0.000000000000E+00
 -0.875408446709E+01  0.118088912060E+02  0.000000000000E+00
 -0.933927357517E+00  0.114402402697E+02  0.000000000000E+00
  0.451821686841E+01  0.944921778847E+01  0.000000000000E+00
  0.999469256166E+01  0.735977394050E+01  0.000000000000E+00
 -0.511488069279E+02  0.951411776220E+01  0.000000000000E+00
 -0.399227199886E+02  0.131263948947E+02  0.000000000000E+00
 -0.320630322579E+02  0.154081471489E+02  0.000000000000E+00
 -0.242286214338E+02  0.168301555134E+02  0.000000000000E+00
 -0.164103024641E+02  0.175779359994E+02  0.000000000000E+00
 -0.861660659651E+01  0.176883897135E+02  0.000000000000E+00
 -0.802915953718E+00  0.171435849376E+02  0.000000000000E+00
  0.408745863033E+01  0.152450333591E+02  0.000000000000E+00
  0.898641750275E+01  0.131884607387E+02  0.000000000000E+00
 -0.502507093311E+02  0.126545222600E+02  0.000000000000E+00
 -0.398630172976E+02  0.174848842262E+02  0.000000000000E+00
 -0.319751349655E+02  0.205048184609E+02  0.000000000000E+00
 -0.241049970337E+02  0.223850243167E+02  0.000000000000E+00
 -0.162308350361E+02  0.233900799801E+02  0.000000000000E+00
 -0.836306672043E+01  0.235899879381E+02  0.000000000000E+00
 -0.554165569578E+00  0.228603679629E+02  0.000000000000E+00
  0.377749754113E+01  0.210041360573E+02  0.000000000000E+00
  0.812980170615E+01  0.189975051045E+02  0.000000000000E+00
 -0.477534186538E+02  0.157922828020E+02  0.000000000000E+00
 -0.397808809885E+02  0.218430261930E+02  0.000000000000E+00
 -0.318717803004E+02  0.256047887162E+02  0.000000000000E+00
 -0.239827000533E+02  0.279312973799E+02  0.000000000000E+00
 -0.160627725420E+02  0.291784258665E+02  0.000000000000E+00
 -0.809064926880E+01  0.294511657694E+02  0.000000000000E+00
  0.215090258293E-01  0.285646493685E+02  0.000000000000E+00
  0.371063367600E+01  0.266469127900E+02  0.000000000000E+00
  0.742126735300E+01  0.247938255800E+02  0.000000000000E+00
 -0.481036476209E+02 -0.153632457687E+02  0.242768185523E+01
 -0.395020482572E+02 -0.213360171774E+02  0.337838475146E+01
 -0.315515186736E+02 -0.250219038703E+02  0.395187477386E+01
 -0.236668472277E+02 -0.272843271495E+02  0.430396379872E+01
 -0.158062397891E+02 -0.284887709766E+02  0.448522899287E+01
 -0.794088945618E+01 -0.287551054636E+02  0.452885600405E+01
 -0.429396045897E-01 -0.280754930282E+02  0.443324805243E+01
  0.487577938100E+01 -0.263526544000E+02  0.396427664200E+01
  0.974471668600E+01 -0.245950934400E+02  0.257295191300E+01
 -0.500460769356E+02 -0.124000971856E+02  0.270618834462E+01
 -0.396138629528E+02 -0.171241187529E+02  0.376421491964E+01
 -0.317465043715E+02 -0.201037315099E+02  0.441320259914E+01
 -0.238909906478E+02 -0.219275058083E+02  0.481077264344E+01
 -0.160510512634E+02 -0.228991356708E+02  0.502183282008E+01
 -0.822618475750E+01 -0.231162544299E+02  0.507015976785E+01
 -0.444083644211E+00 -0.225507514330E+02  0.494944716331E+01
  0.484643319398E+01 -0.216460544748E+02  0.443977913692E+01
  0.101274302519E+02 -0.206011363846E+02  0.296719110767E+01
 -0.509422386089E+02 -0.933776888026E+01  0.292833241020E+01
 -0.397444451365E+02 -0.128652836768E+02  0.405651468072E+01
 -0.318904558469E+02 -0.151099468618E+02  0.476057534600E+01
 -0.240715954085E+02 -0.164940918141E+02  0.519634814494E+01
 -0.162595301477E+02 -0.172268987271E+02  0.542495769220E+01
 -0.846226337010E+01 -0.173784615585E+02  0.547128478256E+01
 -0.662369520881E+00 -0.169473506185E+02  0.533737184912E+01
  0.496740374089E+01 -0.168221690565E+02  0.480165248665E+01
  0.105809393314E+02 -0.165415603953E+02  0.323764551149E+01
 -0.514864409656E+02 -0.623119948864E+01  0.307971115476E+01
 -0.398613182353E+02 -0.856479673657E+01  0.425475489156E+01
 -0.320147588536E+02 -0.100621956656E+02  0.499103956578E+01
 -0.242101714916E+02 -0.109935319315E+02  0.545073571061E+01
 -0.164180146880E+02 -0.114850436596E+02  0.569076155739E+01
 -0.861891239007E+01 -0.115837107905E+02  0.573663197753E+01
 -0.780592157987E+00 -0.112962000935E+02  0.559589514517E+01
  0.518241908377E+01 -0.119261853421E+02  0.503545264824E+01
  0.111315524994E+02 -0.124369710035E+02  0.336571600056E+01
 -0.517954478494E+02 -0.308952680750E+01  0.315202585867E+01
 -0.399452373586E+02 -0.423685004059E+01  0.435136301416E+01
 -0.321062171487E+02 -0.497964352380E+01  0.510103785869E+01
 -0.243067654918E+02 -0.544577585650E+01  0.557065379529E+01
 -0.165213939355E+02 -0.569546276036E+01  0.581687466060E+01
 -0.871738578763E+01 -0.575424056565E+01  0.586351298595E+01
 -0.844204797466E+00 -0.562673406830E+01  0.571846574814E+01
  0.549205321033E+01 -0.700572801192E+01  0.513395602113E+01
  0.117773475871E+02 -0.831849989749E+01  0.334203576248E+01
 -0.519118780701E+02  0.652810777837E-01  0.314895371345E+01
 -0.399907172889E+02  0.107694592182E+00  0.434019749179E+01
 -0.321540303057E+02  0.120884833866E+00  0.508774806242E+01
 -0.243551674091E+02  0.127912656576E+00  0.555579592853E+01
 -0.165724333740E+02  0.121508178716E+00  0.580277286230E+01
 -0.877131665319E+01  0.965200157066E-01  0.585033312304E+01
 -0.903440263461E+00  0.553289161660E-01  0.570497114227E+01
  0.577940766517E+01 -0.212256268147E+01  0.509924124265E+01
  0.126666666700E+02 -0.428227116300E+01  0.316666666700E+01
 -0.518358337005E+02  0.323115176436E+01  0.315731399310E+01
 -0.399967618748E+02  0.444992149518E+01  0.435253865913E+01
 -0.321537408380E+02  0.522333258814E+01  0.510289945571E+01
 -0.243510309111E+02  0.570607586548E+01  0.557442378015E+01
 -0.165683936323E+02  0.594547796072E+01  0.582360013189E+01
 -0.877635542009E+01  0.595609289538E+01  0.587155224868E+01
[...]
POINT_DATA      1313
VECTORS velocities float 
     0.27258622    -0.36088606     0.00000000
     0.44240078    -0.34863130     0.00000000
     0.46712085    -0.29649029     0.00000000
     0.46488986    -0.17046863     0.00000000
     0.34480884    -0.05413910     0.00000000
     0.21288096     0.03425744     0.00000000
     0.00011086     0.07966710     0.00000000
     0.00000000     0.00000000     0.00000000
     0.00000000     0.00000000     0.00000000
     0.24886763    -0.30089994     0.00000000
     0.05263229    -0.28737245     0.00000000
     0.05057205    -0.20086659     0.00000000
    -0.00200833    -0.11905103     0.00000000
    -0.00828835     0.02336134     0.00000000
    -0.03217754     0.07913822     0.00000000
     0.02697060     0.14604191     0.00000000
     0.04655819     0.01492284     0.00000000
     0.08243772    -0.02374146     0.00000000
     0.11560235    -0.26774367     0.00000000
    -0.22002952    -0.15711486     0.00000000
    -0.35628385    -0.16918969     0.00000000
    -0.34947952    -0.02386790     0.00000000
    -0.32380541    -0.00658283     0.00000000
    -0.21395558     0.11725608     0.00000000
    -0.07487255     0.04584232     0.00000000
     0.02182717     0.08919156     0.00000000
    -0.00376025    -0.09237272     0.00000000
     0.09676758    -0.11106433     0.00000000
    -0.43654496    -0.15768440     0.00000000
    -0.57544963    -0.03498655     0.00000000
    -0.63779693    -0.09546642     0.00000000
    -0.52714644     0.04445206     0.00000000
    -0.39559702    -0.01683857     0.00000000
    -0.23722492     0.08231849     0.00000000
    -0.12493988    -0.04973664     0.00000000
    -0.04680863     0.07429018     0.00000000
     0.01521514    -0.12199918     0.00000000
    -0.55805355     0.03597115     0.00000000
    -0.77327510    -0.10248487     0.00000000
    -0.77323940     0.01340888     0.00000000
    -0.70165795    -0.11708306     0.00000000
    -0.47850450     0.01233457     0.00000000
    -0.21650358    -0.09846797     0.00000000
    -0.07717222     0.02835363     0.00000000
    -0.07513750    -0.03752295     0.00000000
     0.01793452     0.12142522     0.00000000
    -0.61867710    -0.01461648     0.00000000
    -0.81560156     0.07195663     0.00000000
    -0.86745913    -0.14507601     0.00000000
    -0.71535753    -0.03844781     0.00000000
    -0.55105904    -0.21328524     0.00000000
    -0.36017258    -0.03056960     0.00000000
    -0.21171646    -0.09098367     0.00000000
     0.00000000     0.00000000     0.00000000
     0.03079633     0.08593752     0.00000000
    -0.60091849     0.21785608     0.00000000
    -0.77659218    -0.05457446     0.00000000
    -0.80019741     0.00337504     0.00000000
    -0.71396335    -0.27129377     0.00000000
    -0.47446188    -0.12839290     0.00000000
    -0.18121283    -0.28618217     0.00000000
    -0.11244534     0.01362353     0.00000000
    -0.08014735    -0.24839172     0.00000000
     0.04021170     0.39109125     0.00000000
    -0.47224375     0.11036657     0.00000000
    -0.65613953     0.15620987     0.00000000
    -0.63027076    -0.17845153     0.00000000
    -0.56416276    -0.14561609     0.00000000
    -0.35158608    -0.40693571     0.00000000
    -0.22425946    -0.14982376     0.00000000
    -0.05374132    -0.23116431     0.00000000
    -0.04469649     0.03522457     0.00000000
     0.14592511     0.35167438     0.00000000
    -0.26839169     0.33401372     0.00000000
    -0.33681495     0.05016332     0.00000000
    -0.34302574     0.01838574     0.00000000
    -0.34874920    -0.34456251     0.00000000
    -0.16599255    -0.29844760     0.00000000
     0.05602739    -0.38977670     0.00000000
     0.05107505    -0.10909460     0.00000000
     0.03892917    -0.15185030     0.00000000
     0.15849000     0.51319701     0.00000000
     0.10723683     0.32146494     0.00000000
     0.03290620     0.23739984     0.00000000
     0.11522440    -0.05238333     0.00000000
    -0.01189430    -0.12691005     0.00000000
     0.03622033    -0.50851923     0.00000000
     0.07693174    -0.26180228     0.00000000
     0.13588926    -0.19568258     0.00000000
     0.08683593    -0.00170573     0.00000000
     0.37394300     0.50225102     0.00000000
     0.51944527     0.52580948     0.00000000
     0.68033234     0.31264780     0.00000000
     0.60759216     0.14974610     0.00000000
     0.61217260    -0.06901344     0.00000000
     0.36414047    -0.25844823     0.00000000
     0.08979206    -0.23673793     0.00000000
     0.00000000     0.00000000     0.00000000
     0.00000000     0.00000000     0.00000000
     0.29605918    -0.37263011     0.05320308
     0.47487546    -0.35948394     0.07259140
     0.50853006    -0.29842491     0.07020552
     0.50663374    -0.16668891     0.05288420
     0.38637543    -0.05225825     0.02958116
     0.25899724     0.03676388     0.01097078
     0.04596785     0.08282052    -0.00531282
     0.00000000     0.00000000     0.00000000
     0.00000000     0.00000000     0.00000000
     0.24910609    -0.31875481     0.06753127
     0.06981718    -0.27558077     0.07997929
     0.08050523    -0.19955947     0.04801781
     0.02204302    -0.09454511     0.01933741
     0.02357327     0.02177809    -0.00487048
    -0.02588612     0.09118514    -0.02327332
     0.03802067     0.13874265    -0.03613466
     0.01281276     0.03347676    -0.03063578
     0.09989828    -0.03049165    -0.00277460
     0.11665633    -0.28954881     0.08640933
    -0.19538312    -0.15448755     0.08415335
    -0.30653750    -0.15763694     0.04227851
    -0.30355047    -0.03168208     0.01246954
    -0.29267897     0.00914473    -0.02543655
    -0.17627988     0.10574253    -0.04896905
    -0.08103346     0.06201415    -0.05182889
     0.04634024     0.07799797    -0.03694734
    -0.01517787    -0.08686885     0.00183000
     0.10152705    -0.12981728     0.10165103
    -0.40268080    -0.14560809     0.08906305
    -0.53357571    -0.04136393     0.03600851
    -0.57505337    -0.07852005    -0.00171444
    -0.49081688     0.03838365    -0.04164389
    -0.36005896     0.00171828    -0.07105098
    -0.20399598     0.07583194    -0.06524248
    -0.10469466    -0.02565704    -0.03084010
    -0.04666291     0.06633821    -0.01015071
     0.02703817    -0.13655097     0.09493394
    -0.53255078     0.03380535     0.09326622
    -0.70809393    -0.08823019     0.03322259
    -0.72512389     0.00974185    -0.00787175
    -0.65108048    -0.09971101    -0.05671726
    -0.43905867     0.00938604    -0.08309089
    -0.20510393    -0.08369851    -0.07560061
    -0.06138678     0.00842027    -0.04056571
    -0.04285682    -0.01985681     0.02549543
     0.02924437     0.13351938     0.10798588
    -0.57674921    -0.01597287     0.08579971
    -0.77579434     0.07245579     0.03737730
    -0.79635001    -0.12846114    -0.01366013
    -0.68334408    -0.03741753    -0.06212051
    -0.49993594    -0.19437891    -0.09213175
    -0.32258296    -0.02763495    -0.07970735
    -0.18785200    -0.08139267    -0.04680596
     0.00000000     0.00000000     0.00000000
     0.03078572     0.06091222     0.12447359
    -0.56323927     0.22292146     0.08031270
    -0.71661657    -0.04214729     0.03994512
    -0.75022779     0.00737120    -0.01125123
    -0.65904268    -0.24908837    -0.06536348
    -0.43786470    -0.12711627    -0.09405885
    -0.16471004    -0.26834588    -0.08974094
    -0.09318333     0.00579949    -0.04872478
    -0.07111688    -0.22461147    -0.01564104
     0.03402407     0.37669136     0.09162893
    -0.45677121     0.12385110     0.08952427
    -0.55700836     0.14908239     0.03275983
    -0.61167281    -0.14679290     0.00105385
    -0.49048881    -0.14101081    -0.06256866
    -0.34131489    -0.37978666    -0.09328695
    -0.16539051    -0.15289078    -0.08714097
    -0.03941075    -0.20719996    -0.05145988
    -0.03544521     0.01336380    -0.01300609
     0.13484561     0.33999125     0.09548215
    -0.25930654     0.33109800     0.08246712
    -0.23524078     0.06730021     0.02501888
    -0.34208881     0.03266885     0.01936429
    -0.27344892    -0.31688620    -0.06061942
    -0.16748225    -0.29057232    -0.08193578
     0.08361398    -0.36702886    -0.09015393
     0.02852712    -0.11585619    -0.04582600
     0.06912817    -0.12362981    -0.02715767
     0.14069871     0.51505307     0.09175885
     0.12008517     0.30634659     0.04875519
     0.10406024     0.26274474     0.04977353
     0.10064244    -0.02990366     0.01392701
     0.05870019    -0.10366988    -0.03461234
     0.02595530    -0.46846916    -0.06912338
     0.10992180    -0.24910605    -0.05669436
     0.13589324    -0.16507395    -0.02295297
     0.06902631    -0.01652638    -0.01405012
     0.37003577     0.46185670     0.05618264
     0.49210231     0.50627907     0.06297835
     0.65340590     0.31404146     0.01092534
     0.59244398     0.15603343    -0.00085771
     0.58276771    -0.05838683    -0.03835635
     0.33445731    -0.22354913    -0.06452442
     0.04512633    -0.20238518    -0.06338355
     0.00000000     0.00000000     0.00000000
     0.00000000     0.00000000     0.00000000
     0.29639648    -0.34933406     0.11893140
     0.47314188    -0.33869028     0.14072323
     0.50331281    -0.26658309     0.12637038
     0.50064101    -0.13378230     0.08519972
     0.37733958    -0.02902152     0.04510991
     0.26441617     0.05325834     0.01473297
     0.03817863     0.09066432    -0.01341882
     0.00000000     0.00000000     0.00000000
     0.00000000     0.00000000     0.00000000
     0.28000333    -0.29665721     0.15215253
     0.10986146    -0.27782581     0.14475825
     0.15324904    -0.16515254     0.11151164
     0.09707007    -0.08788673     0.05196907
     0.08056110     0.04645150     0.00637397
     0.02103491     0.07575701    -0.03857272
     0.04623235     0.15947535    -0.06401331
     0.01068498     0.01492383    -0.02559265
     0.02380235    -0.01226810    -0.02926312
     0.11761445    -0.30459574     0.19481975
    -0.10597839    -0.11492563     0.13613853
    -0.20508851    -0.17254024     0.10376648
    -0.19027848     0.01153403     0.02465188
    -0.18938565    -0.00798021    -0.03221423
    -0.12538900     0.13528172    -0.09256232
    -0.01824891     0.04075638    -0.08946095
     0.03993658     0.12055443    -0.06346125
     0.02650082    -0.10438042     0.01209136
     0.12262336    -0.10478321     0.20552777
    -0.31688043    -0.16032888     0.15962291
    -0.35960512     0.00056031     0.07719060
    -0.45208451    -0.09655219     0.01737675
    -0.35857777     0.08124763    -0.07734886
    -0.27488684    -0.01500334    -0.12344855
    -0.16936109     0.11223446    -0.12995893
    -0.06393871    -0.05995295    -0.05134177
    -0.05415264     0.09755185    -0.02637583
     0.05141012    -0.15366189     0.22027664
    -0.41665103     0.06524274     0.15131884
    -0.56108168    -0.10261000     0.08471035
    -0.55129613     0.05822177    -0.01063937
    -0.52320764    -0.10947501    -0.09507023
    -0.33287447     0.05931086    -0.15905571
    -0.09397980    -0.09212031    -0.14505626
    -0.00511256     0.04335182    -0.08312636
     0.00485954    -0.04477375     0.03588401
     0.05939773     0.14091896     0.21616804
    -0.47193901    -0.03533261     0.16239176
    -0.59280227     0.11837492     0.07765578
    -0.65196015    -0.13610541    -0.01578256
    -0.51820643     0.02370085    -0.10903989
    -0.40739403    -0.19878075    -0.17771280
    -0.25022908     0.01756923    -0.15296091
    -0.15952678    -0.08024348    -0.07609114
     0.00000000     0.00000000     0.00000000
     0.05734656     0.05288120     0.22067987
    -0.43593846     0.24406173     0.16470410
    -0.56262778    -0.05289293     0.07693982
    -0.56544531     0.07313335    -0.01001724
    -0.53573237    -0.24123847    -0.11762430
    -0.32190547    -0.05805238    -0.18144648
    -0.05793776    -0.27855140    -0.17311978
    -0.02375274     0.06845689    -0.09020409
    -0.07200499    -0.25926307    -0.02427271
     0.05188003     0.38228709     0.23991399
    -0.32005459     0.09541219     0.13026162
    -0.43693928     0.20177700     0.10134083
    -0.42928222    -0.13353880    -0.01789100
    -0.38613234    -0.05603138    -0.09029602
    -0.23069039    -0.37116730    -0.20176496
    -0.14784490    -0.08250200    -0.14626596
     0.01346421    -0.22518744    -0.11271557
     0.01586304     0.06796170    -0.01451082
     0.17737610     0.33394752     0.22745053
    -0.13111705     0.32416983     0.11564142
    -0.14243135     0.08517576     0.10008298
    -0.18413399     0.10274825     0.00779621
    -0.20301919    -0.28066752    -0.08960320
    -0.08193699    -0.20790868    -0.16667673
     0.10915995    -0.36140696    -0.15867052
     0.06978314    -0.05489068    -0.08367022
     0.03221107    -0.15194761    -0.04994565
     0.16821106     0.52911487     0.23364146
     0.23192611     0.26746938     0.07474141
     0.10624247     0.32423132     0.12114655
     0.22274390    -0.01579962    -0.01933376
     0.09270846    -0.01929406    -0.02999848
     0.09057051    -0.42908454    -0.18940991
     0.07232853    -0.16924503    -0.08686319
     0.11734721    -0.16170618    -0.08246804
     0.09081342     0.01798327    -0.00451372
     0.38337441     0.42964625     0.10572699
     0.48759249     0.49864490     0.11637279
     0.66257861     0.33339780     0.04895261
     0.60469537     0.18330676     0.00894076
     0.59744644    -0.02622707    -0.05437391
     0.33468121    -0.18771770    -0.10676255
     0.05913667    -0.18592709    -0.09769134
     0.00000000     0.00000000     0.00000000
     0.00000000     0.00000000     0.00000000
     0.30337905    -0.31652452     0.18433963
     0.46661086    -0.31054606     0.20512722
     0.50594346    -0.22926364     0.17808004
     0.49424028    -0.10249196     0.11564824
     0.38295102    -0.00665959     0.06192423
     0.26709050     0.06795170     0.01630619
     0.04595935     0.09960290    -0.02118419
     0.00000000     0.00000000     0.00000000
     0.00000000     0.00000000     0.00000000
     0.30866893    -0.25243803     0.21778805
     0.19172331    -0.25746580     0.22489792
     0.24441195    -0.14323460     0.16061746
     0.20376034    -0.05908726     0.09544344
     0.16918706     0.04429582     0.02097629
     0.07275652     0.08815105    -0.04089737
     0.07347303     0.14286152    -0.08724021
     0.00130915     0.01517752    -0.00832937
    -0.02095212    -0.00616224    -0.03476225
     0.16545453    -0.27049703     0.29905579
     0.04497560    -0.10707461     0.18636937
    -0.03160668    -0.13882691     0.17181993
    -0.00338854     0.01505137     0.05698163
    -0.04560613     0.01584886    -0.01885765
    -0.02079997     0.12614879    -0.11593698
     0.00544478     0.06069272    -0.11248859
     0.07089016     0.09316523    -0.07918188
     0.03585958    -0.07057366     0.02916634
     0.16974446    -0.10919016     0.31159676
    -0.11967825    -0.11258707     0.21223900
    -0.14493307    -0.01200755     0.14468629
    -0.20716227    -0.04942791     0.04461633
    -0.17057877     0.07719570    -0.07828752
    -0.13352474     0.02691500    -0.15804637
    -0.07210305     0.10223487    -0.17464641
    -0.00322745    -0.02898348    -0.07544344
    -0.04502572     0.05657193    -0.03029967
     0.10461103    -0.13115678     0.33174911
    -0.21013184     0.05350156     0.21516927
    -0.28412094    -0.05402142     0.13943159
    -0.29091377     0.05394235     0.01883656
    -0.29352628    -0.04722828    -0.10498917
    -0.17136619     0.06260404    -0.21102007
    -0.02654943    -0.03975438    -0.18988922
     0.01960191     0.01788455    -0.10350577
     0.03972416    -0.01790086     0.02593232
     0.11582241     0.11706448     0.31510013
    -0.25145791     0.00260141     0.22846734
    -0.32827600     0.10590296     0.12895269
    -0.34965894    -0.06556960     0.01049596
    -0.30756449     0.03934951    -0.13247786
    -0.21817068    -0.12325439    -0.23203013
    -0.11261279     0.02059506    -0.21635879
    -0.05564349    -0.05310984    -0.09716191
     0.00000000     0.00000000     0.00000000
     0.11188161     0.05697382     0.29921970
    -0.23931310     0.21791368     0.24208449
    -0.25898612     0.00372924     0.12166373
    -0.30750141     0.09336152     0.02028656
    -0.28842147    -0.14594974    -0.14724583
    -0.16479463    -0.03421994    -0.23799244
     0.00456948    -0.19966569    -0.24482999
     0.03164531     0.05028635    -0.10365835
    -0.04625057    -0.16281529    -0.04860356
     0.11197245     0.34820975     0.33010699
    -0.13911293     0.11376050     0.20975249
    -0.14623253     0.20978228     0.13573792
    -0.20644987    -0.04284584     0.02313562
    -0.15904410    -0.01334029    -0.13298072
    -0.11106308    -0.26129880    -0.24864667
    -0.01882231    -0.07321408    -0.21835785
     0.05701822    -0.15084517    -0.13354413
     0.05737151     0.01919278    -0.00315156
     0.24622374     0.29693233     0.25381689
     0.00361906     0.31526152     0.23224049
     0.07513000     0.14021054     0.11441573
    -0.01091854     0.13610736     0.05386801
    -0.00617080    -0.16395728    -0.13924743
    -0.00394400    -0.15029129    -0.20142629
     0.12878364    -0.26960749    -0.23800898
     0.05534014    -0.03538139    -0.07993512
     0.03127913    -0.09684101    -0.07250544
     0.21511645     0.45615398     0.26410077
     0.27693911     0.29262479     0.16553636
     0.28667685     0.32348328     0.13593044
     0.28060517     0.06279291     0.02407482
     0.24998690     0.00903484    -0.08481847
     0.11931541    -0.29350660    -0.19726461
     0.10786933    -0.16964278    -0.17934182
     0.11838511    -0.09715339    -0.05977813
     0.04555914     0.00028177    -0.01654181
     0.38579758     0.40157170     0.14556248
     0.49090434     0.47570633     0.17843474
     0.65323671     0.33928814     0.08648741
     0.61961311     0.20250495     0.02696469
     0.58701290     0.00919846    -0.07425141
     0.35214978    -0.14372405    -0.14361865
     0.04174832    -0.15658707    -0.13308198
     0.00000000     0.00000000     0.00000000
     0.00000000     0.00000000     0.00000000
     0.31473757    -0.27122072     0.23908990
     0.46098475    -0.27185577     0.26605199
     0.50994498    -0.18476208     0.22117052
     0.49407897    -0.07064509     0.14380245
     0.39247297     0.02031401     0.07497633
     0.27367463     0.08542770     0.01705491
     0.05018856     0.11001777    -0.03234531
     0.00000000     0.00000000     0.00000000
     0.00000000     0.00000000     0.00000000
     0.34154700    -0.19506983     0.26850402
     0.28698657    -0.23243800     0.29900515
     0.38789646    -0.09989769     0.21179560
     0.33340989    -0.05390253     0.14646052
     0.28313001     0.07292832     0.03714509
     0.16282621     0.07819222    -0.02012933
     0.06956683     0.15263002    -0.10636248
     0.04797524    -0.01246248     0.00773285
    -0.07872199     0.00178361    -0.02034307
     0.22400835    -0.22321619     0.36886712
     0.26514279    -0.08606120     0.26110803
     0.19603509    -0.12328283     0.24502960
     0.24592044     0.04979519     0.09280446
     0.17849125     0.01342975     0.03509387
     0.08016592     0.15817840    -0.11685905
     0.09344365     0.05417029    -0.12184803
     0.01498428     0.08871861    -0.06806710
     0.08840265    -0.05758710     0.02046169
     0.28083503    -0.07874528     0.36249473