# vtk DataFile Version 3.0
Example VTK
ASCII
DATASET UNSTRUCTURED_GRID
POINTS  1313 float
 -0.474766853349E+02 -0.155680052173E+02  0.000000000000E+00
 -0.394864370602E+02 -0.215936050530E+02  0.000000000000E+00
 -0.315375136240E+02 -0.253252741588E+02  0.000000000000E+00
 -0.236474542517E+02 -0.276112605844E+02  0.000000000000E+00
 -0.157879574400E+02 -0.288283664379E+02  0.000000000000E+00
 -0.792744465899E+01 -0.290921586507E+02  0.000000000000E+00
 -0.454662759033E-01 -0.284137276220E+02  0.000000000000E+00
  0.485806477600E+01 -0.266469127900E+02  0.000000000000E+00
  0.971612955200E+01 -0.247938255800E+02  0.000000000000E+00
 -0.500245006557E+02 -0.124533178826E+02  0.000000000000E+00
 -0.396112433792E+02 -0.172395518416E+02  0.000000000000E+00
 -0.317345765063E+02 -0.202223991414E+02  0.000000000000E+00
 -0.238828462150E+02 -0.220574230957E+02  0.000000000000E+00
 -0.160483656899E+02 -0.230319932274E+02  0.000000000000E+00
 -0.823152277580E+01 -0.232499400036E+02  0.000000000000E+00
 -0.456291393110E+00 -0.226877713897E+02  0.000000000000E+00
  0.482213707928E+01 -0.217697377874E+02  0.000000000000E+00
  0.101067309546E+02 -0.206579121421E+02  0.000000000000E+00
 -0.509772376939E+02 -0.933590117240E+01  0.000000000000E+00
 -0.397376904740E+02 -0.128894917567E+02  0.000000000000E+00
 -0.318916981077E+02 -0.151307641917E+02  0.000000000000E+00
 -0.240732414525E+02 -0.165141049754E+02  0.000000000000E+00
 -0.162677091723E+02 -0.172469629064E+02  0.000000000000E+00
 -0.847632423553E+01 -0.173991703811E+02  0.000000000000E+00
 -0.681203484655E+00 -0.169734465076E+02  0.000000000000E+00
  0.494323298447E+01 -0.168458582346E+02  0.000000000000E+00
  0.105652074123E+02 -0.165357349724E+02  0.000000000000E+00
 -0.515454847682E+02 -0.621537576361E+01  0.000000000000E+00
 -0.398570796607E+02 -0.854964378388E+01  0.000000000000E+00
 -0.320196421159E+02 -0.100414543952E+02  0.000000000000E+00
 -0.242183641462E+02 -0.109681199470E+02  0.000000000000E+00
 -0.164306125464E+02 -0.114579240565E+02  0.000000000000E+00
 -0.863517957684E+01 -0.115577265248E+02  0.000000000000E+00
 -0.799612642464E+00 -0.112750497963E+02  0.000000000000E+00
  0.516106683739E+01 -0.119075753253E+02  0.000000000000E+00
  0.111187121854E+02 -0.124200928847E+02  0.000000000000E+00
 -0.518678452259E+02 -0.308195373774E+01  0.000000000000E+00
 -0.399424100627E+02 -0.421684887660E+01  0.000000000000E+00
 -0.321125954534E+02 -0.495596805591E+01  0.000000000000E+00
 -0.243175558914E+02 -0.541747027021E+01  0.000000000000E+00
 -0.165360945365E+02 -0.566577263945E+01  0.000000000000E+00
 -0.873413521375E+01 -0.572602842769E+01  0.000000000000E+00
 -0.861015110183E+00 -0.560221903803E+01  0.000000000000E+00
  0.547678065326E+01 -0.698474829421E+01  0.000000000000E+00
  0.117679586950E+02 -0.831302093686E+01  0.000000000000E+00
 -0.519834372658E+02  0.657420237415E-01  0.000000000000E+00
 -0.399893453853E+02  0.112407760654E+00  0.000000000000E+00
 -0.321603651068E+02  0.128527907533E+00  0.000000000000E+00
 -0.243665363771E+02  0.137450595846E+00  0.000000000000E+00
 -0.165877849375E+02  0.131415297945E+00  0.000000000000E+00
 -0.878857948043E+01  0.104809177650E+00  0.000000000000E+00
 -0.920539749083E+00  0.608452964008E-01  0.000000000000E+00
  0.576783911818E+01 -0.211952994164E+01  0.000000000000E+00
  0.126666666700E+02 -0.428227116300E+01  0.000000000000E+00
 -0.519094790019E+02  0.321974278141E+01  0.000000000000E+00
 -0.399949406023E+02  0.444210583398E+01  0.000000000000E+00
 -0.321612006976E+02  0.521502180101E+01  0.000000000000E+00
 -0.243630324156E+02  0.569739008590E+01  0.000000000000E+00
 -0.165849754541E+02  0.593658936592E+01  0.000000000000E+00
 -0.879617365974E+01  0.594601453183E+01  0.000000000000E+00
 -0.958397530157E+00  0.574120108365E+01  0.000000000000E+00
  0.508972873455E+01  0.363900892811E+01  0.000000000000E+00
  0.111632585435E+02  0.155646068461E+01  0.000000000000E+00
 -0.516356259698E+02  0.636705678166E+01  0.000000000000E+00
 -0.399650687152E+02  0.877685410402E+01  0.000000000000E+00
 -0.321186481743E+02  0.103052622166E+02  0.000000000000E+00
 -0.243093117519E+02  0.112608996653E+02  0.000000000000E+00
 -0.165234489099E+02  0.117502844427E+02  0.000000000000E+00
 -0.874096524930E+01  0.118036047304E+02  0.000000000000E+00
 -0.922538387609E+00  0.114374523588E+02  0.000000000000E+00
  0.452791487159E+01  0.944831500405E+01  0.000000000000E+00
  0.100021479785E+02  0.735972627149E+01  0.000000000000E+00
 -0.511286628273E+02  0.950619508884E+01  0.000000000000E+00
 -0.399049935846E+02  0.131199517430E+02  0.000000000000E+00
 -0.320463791936E+02  0.153999168240E+02  0.000000000000E+00
 -0.242134642030E+02  0.168212367961E+02  0.000000000000E+00
 -0.163968454718E+02  0.175687151414E+02  0.000000000000E+00
 -0.860471172899E+01  0.176804186792E+02  0.000000000000E+00
 -0.792928211005E+00  0.171393084176E+02  0.000000000000E+00
  0.409604892226E+01  0.152433989914E+02  0.000000000000E+00
  0.899333531841E+01  0.131881413698E+02  0.000000000000E+00
 -0.502326615895E+02  0.126464169241E+02  0.000000000000E+00
 -0.398447407880E+02  0.174756046428E+02  0.000000000000E+00
 -0.319580527947E+02  0.204943568226E+02  0.000000000000E+00
 -0.240895775231E+02  0.223737587580E+02  0.000000000000E+00
 -0.162182505907E+02  0.233783763632E+02  0.000000000000E+00
 -0.835343785619E+01  0.235792105285E+02  0.000000000000E+00
 -0.546964449068E+00  0.228547017667E+02  0.000000000000E+00
  0.378350572953E+01  0.210024330775E+02  0.000000000000E+00
  0.813426135604E+01  0.189972245233E+02  0.000000000000E+00
 -0.477344770135E+02  0.157812098177E+02  0.000000000000E+00
 -0.397636126869E+02  0.218314159688E+02  0.000000000000E+00
 -0.318541506977E+02  0.255915319086E+02  0.000000000000E+00
 -0.239679195072E+02  0.279177471773E+02  0.000000000000E+00
 -0.160507658188E+02  0.291646094941E+02  0.000000000000E+00
 -0.808460400440E+01  0.294384829195E+02  0.000000000000E+00
  0.202068990935E-01  0.285584297280E+02  0.000000000000E+00
  0.371063367600E+01  0.266469127900E+02  0.000000000000E+00
  0.742126735300E+01  0.247938255800E+02  0.000000000000E+00
 -0.480863738782E+02 -0.153571418024E+02  0.242685439540E+01
 -0.394829790427E+02 -0.213261966051E+02  0.337648002687E+01
 -0.315347684364E+02 -0.250112091861E+02  0.394958690726E+01
 -0.236508953894E+02 -0.272724510237E+02  0.430157501362E+01
 -0.157944783886E+02 -0.284774295782E+02  0.448307880167E+01
 -0.793258837329E+01 -0.287448270820E+02  0.452711542784E+01
 -0.422203299308E-01 -0.280689435333E+02  0.443214896894E+01
  0.487577938100E+01 -0.263526544000E+02  0.396427664200E+01
  0.974471668600E+01 -0.245950934400E+02  0.257295191300E+01
 -0.500264308963E+02 -0.123933624770E+02  0.270496991410E+01
 -0.395961121799E+02 -0.171171061195E+02  0.376214840028E+01
 -0.317293710544E+02 -0.200950617659E+02  0.441092734859E+01
 -0.238756528067E+02 -0.219179244686E+02  0.480829567333E+01
 -0.160379774810E+02 -0.228895756074E+02  0.501940444034E+01
 -0.821644537527E+01 -0.231074467652E+02  0.506791864861E+01
 -0.436916655914E+00 -0.225451294500E+02  0.494798102833E+01
  0.485151963011E+01 -0.216448820616E+02  0.443935951406E+01
  0.101302300376E+02 -0.206014059620E+02  0.296709960279E+01
 -0.509237581713E+02 -0.933399420476E+01  0.292691102652E+01
 -0.397265886670E+02 -0.128597357427E+02  0.405438906001E+01
 -0.318738551521E+02 -0.151036233009E+02  0.475814166754E+01
 -0.240563832896E+02 -0.164868520218E+02  0.519368212094E+01
 -0.162461188369E+02 -0.172195000341E+02  0.542224975709E+01
 -0.845076727067E+01 -0.173718111550E+02  0.546885293970E+01
 -0.653014879942E+00 -0.169433895342E+02  0.533578265902E+01
  0.497451215189E+01 -0.168209742248E+02  0.480096944199E+01
  0.105855339906E+02 -0.165419029613E+02  0.323744036048E+01
 -0.514662656432E+02 -0.622659038840E+01  0.307824300455E+01
 -0.398435379466E+02 -0.856206576645E+01  0.425256167413E+01
 -0.319982501678E+02 -0.100580252066E+02  0.498855757139E+01
 -0.241948715547E+02 -0.109889032124E+02  0.544796053612E+01
 -0.164040256200E+02 -0.114801638789E+02  0.568793239773E+01
 -0.860641870533E+01 -0.115794081657E+02  0.573412924138E+01
 -0.770324764788E+00 -0.112937608701E+02  0.559425536893E+01
  0.519017380053E+01 -0.119255195685E+02  0.503467809170E+01
  0.111365423435E+02 -0.124374577954E+02  0.336548006058E+01
 -0.517756495120E+02 -0.309007942795E+01  0.315038939719E+01
 -0.399273114825E+02 -0.423500765140E+01  0.434918546482E+01
 -0.320895832547E+02 -0.497820546731E+01  0.509852937875E+01
 -0.242913245020E+02 -0.544377562649E+01  0.556785688160E+01
 -0.165070129002E+02 -0.569331296352E+01  0.581400843266E+01
 -0.870433240039E+01 -0.575225146876E+01  0.586099224276E+01
 -0.833597072943E+00 -0.562553701847E+01  0.571682835442E+01
  0.549930686376E+01 -0.700554830953E+01  0.513322721484E+01
  0.117814397034E+02 -0.831916004571E+01  0.334186880472E+01
 -0.518917053499E+02  0.678060409445E-01  0.314732976497E+01
 -0.399726127088E+02  0.106030087167E+00  0.433803704511E+01
 -0.321373606077E+02  0.120228466422E+00  0.508526732227E+01
 -0.243396377860E+02  0.127058574792E+00  0.555301617442E+01
 -0.165578755959E+02  0.120868442947E+00  0.579992061689E+01
 -0.875796151281E+01  0.961863009328E-01  0.584781617651E+01
 -0.892341553360E+00  0.553806736875E-01  0.570333086221E+01
  0.578662901414E+01 -0.212221191206E+01  0.509857986042E+01
  0.126666666700E+02 -0.428227116300E+01  0.316666666700E+01
 -0.518157344958E+02  0.322696485536E+01  0.315516941767E+01
 -0.399785956804E+02  0.444778766680E+01  0.435054187336E+01
 -0.321371234687E+02  0.521987192511E+01  0.510039581416E+01
 -0.243355560092E+02  0.570250716325E+01  0.557162263274E+01
 -0.165539255801E+02  0.594195700375E+01  0.582072058443E+01
 -0.876300997137E+01  0.595335356996E+01  0.586899824857E+01
[...]
POINT_DATA      1313
VECTORS velocities float 
     0.15687250     0.11363225     0.00000000
     0.12061349     0.14618890     0.00000000
     0.09056945     0.15177398     0.00000000
     0.07151660     0.13646764     0.00000000
     0.05354427     0.11006512     0.00000000
     0.03986655     0.07578891     0.00000000
     0.02337192     0.03698374     0.00000000
     0.00000000     0.00000000     0.00000000
     0.00000000     0.00000000     0.00000000
     0.17017142     0.09923507     0.00000000
     0.27451717     0.10158083     0.00000000
     0.26635906     0.13384451     0.00000000
     0.42353007     0.05397254     0.00000000
     0.47247656     0.09478957     0.00000000
     0.85519197    -0.04245764     0.00000000
     1.26502509     0.21327000     0.00000000
     2.39799370     0.26627440     0.00000000
     3.81635537     1.11977283     0.00000000
     0.19633561     0.06661963     0.00000000
     0.38282131     0.07374923     0.00000000
     0.45747311     0.03820835     0.00000000
     0.64965310     0.02719357     0.00000000
     0.80579355    -0.10647535     0.00000000
     1.29151153    -0.13755761     0.00000000
     2.45493202    -0.27061010     0.00000000
     4.13579113     0.03269262     0.00000000
     8.02068700    -0.29183169     0.00000000
     0.21532729     0.03780952     0.00000000
     0.46803458     0.02402530     0.00000000
     0.49977093     0.00474206     0.00000000
     0.82701769    -0.09385990     0.00000000
     0.89504789    -0.18897728     0.00000000
     1.51674245    -0.43063260     0.00000000
     2.45359978    -0.82659937     0.00000000
     5.02479854    -1.08148622     0.00000000
     7.95035316    -1.83893262     0.00000000
     0.22774293    -0.00720958     0.00000000
     0.47697933    -0.00199082     0.00000000
     0.63098299    -0.07111729     0.00000000
     0.76900514    -0.14165050     0.00000000
     0.97508645    -0.32573377     0.00000000
     1.27867128    -0.56197746     0.00000000
     1.66737319    -1.05166110     0.00000000
     3.04151538    -1.88428338     0.00000000
     5.86416704    -2.10737259     0.00000000
     0.23684326    -0.01950021     0.00000000
     0.49890115    -0.06577449     0.00000000
     0.59067618    -0.09160031     0.00000000
     0.77038691    -0.20386568     0.00000000
     0.80488354    -0.35586647     0.00000000
     0.98842717    -0.60844733     0.00000000
     1.08176986    -0.88996368     0.00000000
     1.21483072    -1.54674963     0.00000000
     0.00000000     0.00000000     0.00000000
     0.23177632    -0.07782785     0.00000000
     0.45782960    -0.08453703     0.00000000
     0.59262296    -0.12953268     0.00000000
     0.60954538    -0.21974151     0.00000000
     0.71499351    -0.33760927     0.00000000
     0.59929324    -0.52036322     0.00000000
     0.40982539    -0.61846007     0.00000000
     0.10350278    -0.61201482     0.00000000
     0.26072369     0.16314703     0.00000000
     0.22238806    -0.12553218     0.00000000
     0.44295589    -0.10770180     0.00000000
     0.47634585    -0.15171104     0.00000000
     0.54605744    -0.19353233     0.00000000
     0.45909706    -0.30893300     0.00000000
     0.42796413    -0.34171110     0.00000000
     0.23556670    -0.39418414     0.00000000
     0.10146851    -0.24369321     0.00000000
    -0.05694227    -0.20144251     0.00000000
     0.21288083    -0.16307089     0.00000000
     0.34242763    -0.14128785     0.00000000
     0.39215485    -0.14311983     0.00000000
     0.35702961    -0.19718402     0.00000000
     0.35944407    -0.20055076     0.00000000
     0.21939586    -0.26483783     0.00000000
     0.06566209    -0.15369045     0.00000000
    -0.00385642    -0.16222268     0.00000000
    -0.06258284    -0.02846392     0.00000000
     0.18794477    -0.18907291     0.00000000
     0.25766916    -0.16486574     0.00000000
     0.24656256    -0.15559204     0.00000000
     0.24108787    -0.14746786     0.00000000
     0.17701521    -0.18318776     0.00000000
     0.14091872    -0.11488098     0.00000000
     0.08587827    -0.12546032     0.00000000
     0.02696095    -0.05269929     0.00000000
    -0.05972307    -0.03472793     0.00000000
     0.15678650    -0.21534254     0.00000000
     0.10695470    -0.20662959     0.00000000
     0.09081817    -0.17802536     0.00000000
     0.07757248    -0.14734691     0.00000000
     0.05761715    -0.12340009     0.00000000
     0.02543472    -0.09231981     0.00000000
    -0.01758799    -0.03796665     0.00000000
     0.00000000     0.00000000     0.00000000
     0.00000000     0.00000000     0.00000000
     0.14189816     0.12152512    -0.01982667
     0.10272847     0.15320127    -0.03309787
     0.06771464     0.15355620    -0.03570193
     0.04817420     0.13517762    -0.03166583
     0.03123218     0.10823320    -0.02310904
     0.01699015     0.07564916    -0.01419336
    -0.00211296     0.03455031    -0.00604744
     0.00000000     0.00000000     0.00000000
     0.00000000     0.00000000     0.00000000
     0.17187644     0.10998403    -0.02645480
     0.23798053     0.09709392    -0.03851141
     0.30507802     0.13570336    -0.03305045
     0.33211509     0.04213426    -0.03531293
     0.51728466     0.10137463    -0.05125348
     0.70248920    -0.05206137    -0.07951891
     1.17610926     0.17522822    -0.24811486
     1.85892036     0.15925644    -0.48373259
     3.29323287     1.08439526    -0.80810695
     0.19492364     0.07859285    -0.03221695
     0.32371381     0.06714979    -0.04427387
     0.53260592     0.04336861    -0.03205734
     0.49850304     0.02582951    -0.05424149
     0.88133183    -0.09722717    -0.06778685
     1.05445493    -0.12130092    -0.13839931
     2.17542558    -0.28764777    -0.48706394
     3.12111094     0.03111527    -1.03504634
     7.20091284    -0.16611378    -1.35387880
     0.21357667     0.04766296    -0.03595428
     0.41737390     0.02376434    -0.04563698
     0.55223038     0.00647922    -0.03349371
     0.69287816    -0.08883389    -0.05782563
     0.95060672    -0.17007256    -0.07929293
     1.28649583    -0.41330967    -0.15869773
     2.14724099    -0.72513519    -0.53930888
     3.92394965    -0.89725973    -1.22117448
     7.16757063    -1.69586369    -1.50111816
     0.22514449     0.00384431    -0.03466805
     0.43831549    -0.00714839    -0.04515949
     0.66415578    -0.06569760    -0.03522964
     0.66232577    -0.13452129    -0.05636001
     1.00844652    -0.30753565    -0.07304706
     1.09033936    -0.52562545    -0.15248532
     1.47813568    -0.92693709    -0.38291862
     2.33636778    -1.57001165    -0.81713738
     5.13838624    -1.94919107    -1.26488383
     0.23187927    -0.02301684    -0.03689462
     0.49245720    -0.05852266    -0.04305897
     0.56181906    -0.09523345    -0.03748322
     0.74879740    -0.18916795    -0.04671381
     0.75441110    -0.34427333    -0.06593225
     0.93389702    -0.56498923    -0.10536439
     0.94712833    -0.80489066    -0.20199272
     1.05983901    -1.36409512    -0.33781654
     0.00000000     0.00000000     0.00000000
     0.22895492    -0.07420977    -0.04430882
     0.43976698    -0.08605892    -0.03551847
     0.58008265    -0.12390461    -0.04045548
     0.57746377    -0.21662110    -0.03901194
     0.68825368    -0.31477140    -0.05033890
     0.55518786    -0.49867435    -0.06545971
     0.37586731    -0.55760189    -0.07196098
     0.07947189    -0.58210740    -0.05253311
     0.23608649     0.16255571    -0.00750516
     0.22091626    -0.11435503    -0.03901403
     0.43164458    -0.11002315    -0.03558855
     0.45801716    -0.15089623    -0.03598803
     0.52690093    -0.18479544    -0.03464453
     0.43394487    -0.30267195    -0.03562900
     0.41084850    -0.31325302    -0.03261291
     0.22419591    -0.38322590    -0.01838839
     0.09415523    -0.21879974    -0.00442448
    -0.06826576    -0.19863096     0.00107055
     0.21127022    -0.15325539    -0.03398571
     0.33101380    -0.14306351    -0.03208820
     0.37678757    -0.14096814    -0.03104298
     0.34309718    -0.19809537    -0.02979874
     0.34557667    -0.18790598    -0.02466170
     0.20935917    -0.26285936    -0.01814922
     0.06451262    -0.13610791     0.00245283
     0.00513890    -0.15880696     0.01200065
    -0.05228726    -0.02061699     0.02286336
     0.18672767    -0.17946311    -0.02820509
     0.24768763    -0.16256989    -0.02481630
     0.24262086    -0.16097004    -0.02840358
     0.23012285    -0.14528310    -0.02360372
     0.17222840    -0.18545196    -0.02006755
     0.13213861    -0.10414161    -0.00786215
     0.08564777    -0.12982056    -0.00682212
     0.02304150    -0.04843272     0.00833128
    -0.05329362    -0.03512103     0.01226755
     0.16228670    -0.19651928    -0.02063688
     0.12399990    -0.19739491    -0.02030385
     0.10722986    -0.17322149    -0.01430461
     0.09365095    -0.14480977    -0.01350373
     0.07329019    -0.12063098    -0.01580302
     0.04204871    -0.08801187    -0.01477153
     0.00296078    -0.04265227    -0.00365401
     0.00000000     0.00000000     0.00000000
     0.00000000     0.00000000     0.00000000
     0.13971181     0.11129849    -0.04485313
     0.10334173     0.14561745    -0.06474827
     0.06912012     0.13999061    -0.06638171
     0.05353780     0.12269896    -0.05660898
     0.03674055     0.10004786    -0.04244419
     0.02172200     0.07206025    -0.02792592
     0.00121602     0.03546486    -0.01241903
     0.00000000     0.00000000     0.00000000
     0.00000000     0.00000000     0.00000000
     0.16610382     0.10933805    -0.06170005
     0.25194111     0.09140790    -0.05787328
     0.20701143     0.13566787    -0.09102438
     0.35782485     0.02419027    -0.04842345
     0.34141738     0.10697227    -0.11122873
     0.65049092    -0.06635530    -0.12724261
     0.66582553     0.11087432    -0.30044590
     1.14624101    -0.10844708    -0.58653224
     1.95564778     0.94993175    -1.22332957
     0.18980818     0.07709693    -0.07144254
     0.33737854     0.07005706    -0.06409754
     0.39621636     0.03538221    -0.08733193
     0.52121321     0.03805917    -0.07450617
     0.61227845    -0.10135286    -0.13506967
     0.96071222    -0.06489559    -0.23172339
     1.19022378    -0.33325143    -0.49733912
     1.38497700    -0.06581092    -1.29792130
     4.78943143     0.09742395    -2.17888642
     0.20972609     0.04576881    -0.07603325
     0.42364113     0.01888334    -0.07170518
     0.39593540     0.01624882    -0.08878055
     0.70944391    -0.08175806    -0.07471194
     0.64597330    -0.12714063    -0.16859771
     1.19001027    -0.35424702    -0.23829714
     1.08404567    -0.53488296    -0.54526091
     1.86963547    -0.51302846    -1.53735226
     4.74100995    -1.25450843    -2.35311364
     0.21913141     0.00256726    -0.07687381
     0.41891643    -0.00422354    -0.07474937
     0.55849071    -0.06012467    -0.08270750
     0.60823439    -0.11369466    -0.08323380
     0.80433595    -0.25325180    -0.14995778
     0.91458338    -0.43454689    -0.22181281
     0.83268037    -0.66934665    -0.42145034
     1.04830811    -0.85315667    -0.99232230
     3.02196144    -1.43944496    -1.95226159
     0.22419736    -0.02654412    -0.07795774
     0.45967951    -0.05523597    -0.07707768
     0.48841560    -0.08671980    -0.07501312
     0.67381245    -0.16473583    -0.08383979
     0.61925890    -0.29306053    -0.11623171
     0.78610630    -0.45875940    -0.16879993
     0.65849798    -0.61532960    -0.25413234
     0.70135204    -0.92543678    -0.44545359
     0.00000000     0.00000000     0.00000000
     0.22274831    -0.07675473    -0.07754430
     0.39604833    -0.08201866    -0.07744625
     0.53167230    -0.11516458    -0.07112646
     0.49124810    -0.19647878    -0.07675409
     0.61606644    -0.26421580    -0.08690319
     0.44103953    -0.42845621    -0.10712204
     0.30951579    -0.41919078    -0.10908251
     0.03041295    -0.52378381    -0.07465540
     0.17098063     0.15087606    -0.00041454
     0.21589713    -0.11127246    -0.07177174
     0.40256033    -0.10761087    -0.07279676
     0.40151958    -0.14520201    -0.06679825
     0.48009834    -0.16655328    -0.06694949
     0.36809543    -0.27471810    -0.06454017
     0.36749452    -0.25765095    -0.05899837
     0.19973613    -0.34212072    -0.03321302
     0.07288163    -0.16094534    -0.00522644
    -0.08850904    -0.18337729    -0.00534359
     0.20492562    -0.15189760    -0.06675774
     0.29912543    -0.13745343    -0.06362230
     0.34691440    -0.14102408    -0.06245268
     0.30138167    -0.19039610    -0.05594094
     0.31529591    -0.16852941    -0.04676559
     0.18301441    -0.24214660    -0.03700745
     0.06438610    -0.11579481    -0.00033060
     0.02279501    -0.14997073     0.01312162
    -0.01926264    -0.00327670     0.04586626
     0.17589392    -0.17534440    -0.05485809
     0.23498832    -0.15799030    -0.05207027
     0.22444665    -0.16552172    -0.05360893
     0.21572298    -0.14261537    -0.04153107
     0.15339716    -0.17967250    -0.04358929
     0.12698115    -0.09525508    -0.01693416
     0.06996333    -0.12051760    -0.01349385
     0.03228974    -0.04201638     0.01063700
    -0.04368308    -0.03594046     0.02031091
     0.15932718    -0.18639995    -0.03904894
     0.12482776    -0.19660793    -0.04153236
     0.10404301    -0.17694948    -0.03424738
     0.08731261    -0.14957277    -0.03169036
     0.06543931    -0.12139015    -0.03201264
     0.03682603    -0.08529833    -0.02670434
     0.00139601    -0.03886625    -0.01091107
     0.00000000     0.00000000     0.00000000
     0.00000000     0.00000000     0.00000000
     0.13789884     0.10011270    -0.06943669
     0.10422473     0.13382558    -0.09523366
     0.07159232     0.12464221    -0.09412552
     0.05696680     0.10942268    -0.08036357
     0.04009893     0.09147132    -0.06214017
     0.02294450     0.06732226    -0.04210058
     0.00136200     0.03373886    -0.02055660
     0.00000000     0.00000000     0.00000000
     0.00000000     0.00000000     0.00000000
     0.15801271     0.09171951    -0.09077462
     0.19878839     0.08361613    -0.10438330
     0.21374956     0.12307776    -0.10165252
     0.20946291     0.01553942    -0.09876308
     0.33264337     0.11458203    -0.11718033
     0.31548322    -0.09218709    -0.13522187
     0.52089025     0.11540999    -0.28699302
     0.49747703    -0.30579292    -0.17125426
     0.52537984     0.67660098    -1.11486744
     0.17613594     0.06674387    -0.10653868
     0.23188439     0.06477204    -0.10331105
     0.42065786     0.02392083    -0.09007638
     0.26887091     0.05371976    -0.14723891
     0.58335334    -0.09249845    -0.09418473
     0.39241670    -0.01693437    -0.30319716
     1.01709825    -0.25886057    -0.30931717
    -0.11832814    -0.25313854    -0.41528369
     1.73930449     0.33003139    -2.14847152
     0.19538453     0.04178519    -0.11737962
     0.33301935     0.01342374    -0.11145992
     0.34326066     0.02206236    -0.10079264
     0.49936695    -0.05746725    -0.14286662
     0.50617070    -0.08623447    -0.12076288
     0.65386145    -0.23848916    -0.33092664
     0.89258110    -0.36333177    -0.26287317
     0.08436477    -0.24999791    -0.57062522
     1.74364303    -0.55225313    -2.19090798
     0.20521974     0.00112407    -0.11758335
     0.31897110    -0.00595906    -0.10450237
     0.49992539    -0.04679099    -0.10560920
     0.39355788    -0.08066690    -0.13298228
     0.66561147    -0.18550143    -0.13246538
     0.47296426    -0.27419858    -0.27336571
     0.64056138    -0.47519569    -0.24282312
     0.02821348    -0.30150783    -0.36104760
     0.66691914    -0.70539087    -1.75298818
     0.20973874    -0.02926083    -0.11552956
     0.39362198    -0.05024318    -0.11014471
     0.37042813    -0.07660560    -0.10453262
     0.54833098    -0.11958762    -0.11508213
     0.42392056    -0.22622724    -0.13222233
     0.58062097    -0.29715418    -0.17903724
     0.38154735    -0.42195076    -0.19674975
     0.39743666    -0.52877185    -0.29840919
     0.00000000     0.00000000     0.00000000
     0.20980982    -0.07126908    -0.11426084
     0.32637776    -0.08038128    -0.10667859
     0.43733510    -0.09513330    -0.10718927
     0.36847767    -0.16850619    -0.09897261
     0.48631161    -0.18287868    -0.11063036
     0.30091398    -0.33443119    -0.11821870
     0.22271528    -0.24206296    -0.09691541
    -0.01344531    -0.40963165    -0.07977747
     0.09541406     0.11179346     0.01513655
     0.20249458    -0.10674246    -0.10908525
     0.34296921    -0.09932893    -0.10095850
     0.31920196    -0.13954772    -0.09882227
     0.39322267    -0.13195206    -0.08984415
     0.27473255    -0.23324133    -0.08870752
     0.29112614    -0.17461199    -0.06991441
     0.15642312    -0.28240212    -0.05280834
     0.06766808    -0.09522740     0.01135689
    -0.12110537    -0.14686879    -0.00714827
     0.19077874    -0.14150845    -0.09598552
     0.25602479    -0.13486154    -0.09494261
     0.28973812    -0.13350169    -0.09104570
     0.24274095    -0.17540615    -0.08000673
     0.25488501    -0.13506334    -0.06269862
     0.14758571    -0.21182001    -0.06171772
     0.05439318    -0.07828468    -0.00109001
     0.02574871    -0.13359501    -0.00460220
     0.02626462     0.00655342     0.05269883
     0.16922009    -0.16176062    -0.07592836
     0.20920645    -0.15627654    -0.08195325
     0.19306720    -0.16292871    -0.07532614
     0.18286295    -0.13758525    -0.06321421
     0.13038058    -0.16217156    -0.06077136
     0.09773185    -0.08826545    -0.03381334
     0.07121386    -0.10317947    -0.02243297
     0.01471391    -0.02685657     0.01637608
    -0.02458529    -0.03379916     0.00812706
     0.15656053    -0.17538912    -0.05770636
     0.12560120    -0.19081345    -0.06447763
     0.10192565    -0.17440532    -0.05584733
     0.08409391    -0.14865847    -0.05110223
     0.06121256    -0.11882579    -0.04739409
     0.03412635    -0.08159019    -0.03752634
     0.00131074    -0.03846601    -0.01521990
     0.00000000     0.00000000     0.00000000
     0.00000000     0.00000000     0.00000000
     0.13724123     0.08557693    -0.09295017
     0.10533125     0.11597718    -0.12229742
     0.07440034     0.10556295    -0.11864165
     0.06000058     0.09332551    -0.10242057
     0.04225572     0.07958976    -0.08106603
     0.02347758     0.05964339    -0.05606262
     0.00160310     0.03013399    -0.02779705
     0.00000000     0.00000000     0.00000000
     0.00000000     0.00000000     0.00000000
     0.15089674     0.07270204    -0.11440770
     0.19207061     0.06324914    -0.11507606
     0.07829925     0.11698844    -0.16521955
     0.23021904     0.00634514    -0.07268274
     0.07342970     0.11397347    -0.18166434
     0.33343450    -0.07965431    -0.03202273
    -0.15353220     0.11322005    -0.24177150
     0.79837623    -0.23117327    -0.00667562
    -0.47606136     0.36052426    -0.58072597
     0.15454565     0.04903066    -0.12985165
     0.19282886     0.06371404    -0.12630179
     0.23723258     0.02790897    -0.15373937
     0.19109868     0.03591213    -0.10070582
     0.28506718    -0.00711854    -0.19260069
     0.24959463    -0.06086768    -0.07408724
     0.19458239    -0.01094000    -0.34870447
     0.63584880    -0.35230683     0.14865448
    -0.61753711     0.33889661    -1.14103420
     0.16666208     0.03056885    -0.14739740