# vtk DataFile Version 3.0
Example VTK
ASCII
DATASET UNSTRUCTURED_GRID
POINTS   510 float
 -0.474766853349E+02 -0.155680052173E+02  0.000000000000E+00
 -0.394864370602E+02 -0.215936050530E+02  0.000000000000E+00
 -0.315375136240E+02 -0.253252741588E+02  0.000000000000E+00
 -0.236474542517E+02 -0.276112605844E+02  0.000000000000E+00
 -0.157879574400E+02 -0.288283664379E+02  0.000000000000E+00
 -0.792744465899E+01 -0.290921586507E+02  0.000000000000E+00
 -0.454662759033E-01 -0.284137276220E+02  0.000000000000E+00
  0.485806477600E+01 -0.266469127900E+02  0.000000000000E+00
  0.971612955200E+01 -0.247938255800E+02  0.000000000000E+00
 -0.500245006557E+02 -0.124533178826E+02  0.000000000000E+00
 -0.509772376939E+02 -0.933590117240E+01  0.000000000000E+00
 -0.515454847682E+02 -0.621537576361E+01  0.000000000000E+00
 -0.518678452259E+02 -0.308195373774E+01  0.000000000000E+00
 -0.519834372658E+02  0.657420237415E-01  0.000000000000E+00
 -0.519094790019E+02  0.321974278141E+01  0.000000000000E+00
 -0.516356259698E+02  0.636705678166E+01  0.000000000000E+00
 -0.511286628273E+02  0.950619508884E+01  0.000000000000E+00
 -0.502326615895E+02  0.126464169241E+02  0.000000000000E+00
 -0.477344770135E+02  0.157812098177E+02  0.000000000000E+00
 -0.397636126869E+02  0.218314159688E+02  0.000000000000E+00
 -0.318541506977E+02  0.255915319086E+02  0.000000000000E+00
 -0.239679195072E+02  0.279177471773E+02  0.000000000000E+00
 -0.160507658188E+02  0.291646094941E+02  0.000000000000E+00
 -0.808460400440E+01  0.294384829195E+02  0.000000000000E+00
  0.202068990935E-01  0.285584297280E+02  0.000000000000E+00
  0.371063367600E+01  0.266469127900E+02  0.000000000000E+00
  0.742126735300E+01  0.247938255800E+02  0.000000000000E+00
 -0.480863738782E+02 -0.153571418024E+02  0.242685439540E+01
 -0.394829790427E+02 -0.213261966051E+02  0.337648002687E+01
 -0.315347684364E+02 -0.250112091861E+02  0.394958690726E+01
 -0.236508953894E+02 -0.272724510237E+02  0.430157501362E+01
 -0.157944783886E+02 -0.284774295782E+02  0.448307880167E+01
 -0.793258837329E+01 -0.287448270820E+02  0.452711542784E+01
 -0.422203299308E-01 -0.280689435333E+02  0.443214896894E+01
  0.487577938100E+01 -0.263526544000E+02  0.396427664200E+01
  0.974471668600E+01 -0.245950934400E+02  0.257295191300E+01
 -0.500264308963E+02 -0.123933624770E+02  0.270496991410E+01
 -0.509237581713E+02 -0.933399420476E+01  0.292691102652E+01
 -0.514662656432E+02 -0.622659038840E+01  0.307824300455E+01
 -0.517756495120E+02 -0.309007942795E+01  0.315038939719E+01
 -0.518917053499E+02  0.678060409445E-01  0.314732976497E+01
 -0.518157344958E+02  0.322696485536E+01  0.315516941767E+01
 -0.515551183194E+02  0.637570276246E+01  0.308705164046E+01
 -0.510672195841E+02  0.949133157746E+01  0.294895420218E+01
 -0.502128470910E+02  0.125612468614E+02  0.274475561901E+01
 -0.483080346946E+02  0.155423612762E+02  0.246356617210E+01
 -0.397653787033E+02  0.215452839314E+02  0.341439699274E+01
 -0.318497794573E+02  0.252612686366E+02  0.399887015143E+01
 -0.239530260379E+02  0.275565265996E+02  0.437165376489E+01
 -0.160248083096E+02  0.287782532310E+02  0.459034495486E+01
 -0.804513722582E+01  0.290155005609E+02  0.464032081403E+01
  0.171913074196E-01  0.281549608204E+02  0.450594154723E+01
  0.373898642700E+01  0.263356989800E+02  0.400177498900E+01
  0.746269299800E+01  0.245641965300E+02  0.298701071100E+01
 -0.486360560480E+02 -0.147673069603E+02  0.480410063245E+01
 -0.394982483111E+02 -0.205528615041E+02  0.668374087907E+01
 -0.315529863219E+02 -0.241035994520E+02  0.781884951356E+01
 -0.236758880156E+02 -0.262912229288E+02  0.851027612817E+01
 -0.158176401077E+02 -0.274593138129E+02  0.887547466774E+01
 -0.795239766684E+01 -0.277150572649E+02  0.896074769545E+01
 -0.485349848960E-01 -0.270588935259E+02  0.876733738243E+01
  0.492848700300E+01 -0.254771248200E+02  0.783093963700E+01
  0.982977417800E+01 -0.240037904700E+02  0.508254921200E+01
 -0.500058490810E+02 -0.120404675467E+02  0.539059399904E+01
 -0.507798220014E+02 -0.911800493863E+01  0.584266484775E+01
 -0.512370506146E+02 -0.608700710311E+01  0.614065064996E+01
 -0.515017595132E+02 -0.302786836429E+01  0.629785363274E+01
 -0.516067499061E+02  0.684159536647E-01  0.629467359438E+01
 -0.515442407449E+02  0.316000355690E+01  0.630078488763E+01
 -0.513263034874E+02  0.622835203613E+01  0.615752204809E+01
 -0.508993821353E+02  0.925051538522E+01  0.587934550595E+01
 -0.501559753041E+02  0.121657776082E+02  0.544092635301E+01
 -0.488336152601E+02  0.149287142418E+02  0.483478303178E+01
 -0.397657845219E+02  0.207288462561E+02  0.672147456015E+01
 -0.318428238749E+02  0.243104548805E+02  0.788342899217E+01
 -0.239278427044E+02  0.265182836876E+02  0.862218641583E+01
 -0.159810380910E+02  0.276774769645E+02  0.903515814851E+01
 -0.801392150861E+01  0.278846842322E+02  0.911848449173E+01
  0.117410889082E-01  0.270744100101E+02  0.885240591148E+01
  0.382334654000E+01  0.254097206600E+02  0.790501299700E+01
  0.758594989700E+01  0.238809636100E+02  0.590047130500E+01
 -0.490745951093E+02 -0.138227402349E+02  0.706515033346E+01
 -0.395167230014E+02 -0.192703262335E+02  0.983128474882E+01
 -0.315754084671E+02 -0.226050513896E+02  0.115011415112E+02
 -0.236975523258E+02 -0.246651743260E+02  0.125230774129E+02
 -0.158332280075E+02 -0.257642643873E+02  0.130666419498E+02
 -0.796404827521E+01 -0.259966292828E+02  0.131927343834E+02
 -0.502567748435E-01 -0.253761148611E+02  0.128992891594E+02
  0.501488980600E+01 -0.240418825200E+02  0.115047789100E+02
  0.996920763000E+01 -0.230344765000E+02  0.746699728000E+01
 -0.499392794601E+02 -0.113297768373E+02  0.796788952043E+01
 -0.504819485999E+02 -0.865012590070E+01  0.868473371107E+01
 -0.508050281288E+02 -0.581936144464E+01  0.917534585511E+01
 -0.509934083241E+02 -0.289484334523E+01  0.942310987784E+01
 -0.510702708532E+02  0.587721262585E-01  0.943898691977E+01
 -0.510280445910E+02  0.300188799220E+01  0.943161800370E+01
 -0.508839143086E+02  0.592580090372E+01  0.920451299725E+01
 -0.505837165686E+02  0.875844531140E+01  0.871797907461E+01
 -0.500704661055E+02  0.114430381795E+02  0.799382294972E+01
 -0.492489371160E+02  0.139663351039E+02  0.708397306288E+01
 -0.397594405202E+02  0.194054021904E+02  0.986969215378E+01
 -0.318314010473E+02  0.227532157537E+02  0.115919353440E+02
 -0.239042584425E+02  0.248175990362E+02  0.126772285569E+02
 -0.159496779972E+02  0.258937348693E+02  0.132624413932E+02
 -0.799325447695E+01  0.260826081195E+02  0.133660747575E+02
  0.816783992180E-02  0.253478303986E+02  0.129772417610E+02
  0.396163679000E+01  0.238917785000E+02  0.116136033500E+02
  0.778800305500E+01  0.227609502700E+02  0.866864271200E+01
 -0.493610203524E+02 -0.125402844902E+02  0.915144712528E+01
 -0.395358687376E+02 -0.175063548463E+02  0.127388399172E+02
 -0.315977279026E+02 -0.205449501149E+02  0.149104726102E+02
 -0.237139316507E+02 -0.224275768469E+02  0.162428427941E+02
 -0.158401459978E+02 -0.234274271211E+02  0.169508215091E+02
 -0.796871114728E+01 -0.236299127749E+02  0.171075352092E+02
 -0.523727870496E-01 -0.230620549013E+02  0.167182669887E+02
  0.513286026600E+01 -0.220822679200E+02  0.148953323400E+02
  0.101595837300E+02 -0.217110192700E+02  0.966758309400E+01
 -0.497560857257E+02 -0.103323608447E+02  0.103815027641E+02
 -0.499548071403E+02 -0.793764375175E+01  0.113750184258E+02
 -0.500478218175E+02 -0.538985581061E+01  0.121015941761E+02
 -0.501121455265E+02 -0.269421833260E+01  0.124943483093E+02
 -0.501325067120E+02  0.397999562739E-01  0.125759394318E+02
 -0.501388270417E+02  0.276709720776E+01  0.125083500806E+02
 -0.501139110075E+02  0.546311561051E+01  0.121357685434E+02
 -0.500532980845E+02  0.803951575304E+01  0.114092532174E+02
 -0.498792966262E+02  0.104536896972E+02  0.104022583034E+02
 -0.495124435649E+02  0.126757087876E+02  0.916218924842E+01
 -0.397444600923E+02  0.176097511172E+02  0.127814388384E+02
 -0.318137660670E+02  0.206303480215E+02  0.150176768576E+02
 -0.238861995113E+02  0.224926838213E+02  0.164190977156E+02
 -0.159335563035E+02  0.234686248019E+02  0.171601874673E+02
 -0.798747416071E+01  0.236514731484E+02  0.172814136818E+02
  0.574214569304E-02  0.230090784944E+02  0.167888095091E+02
  0.415045201100E+01  0.218192492600E+02  0.150362282400E+02
  0.806387725500E+01  0.212317349700E+02  0.112233633700E+02
 -0.494657942782E+02 -0.109529678312E+02  0.110110149729E+02
 -0.395539035587E+02 -0.153028408607E+02  0.153350269713E+02
 -0.316169992460E+02 -0.179687212590E+02  0.179609807794E+02
 -0.237260308291E+02 -0.196246581401E+02  0.195751390855E+02
 -0.158433716957E+02 -0.205019373759E+02  0.204255705722E+02
 -0.797194609093E+01 -0.206736609323E+02  0.206045403986E+02
 -0.540331027343E-01 -0.201774134425E+02  0.201297335460E+02
  0.527949355900E+01 -0.196465332300E+02  0.179191132600E+02
  0.103962147800E+02 -0.200660066800E+02  0.116301209300E+02
 -0.493809580804E+02 -0.910119484679E+01  0.126042477985E+02
 -0.395687834673E+02 -0.127176405865E+02  0.175533813731E+02
 -0.316320353569E+02 -0.149388134598E+02  0.205720874202E+02
 -0.237359458309E+02 -0.163240669437E+02  0.224270746788E+02
 -0.158487220219E+02 -0.170604579064E+02  0.233974553031E+02
 -0.797732609710E+01 -0.172051410155E+02  0.235940479008E+02
 -0.550425651656E-01 -0.167919342487E+02  0.230505608712E+02
  0.545708352200E+01 -0.166965753800E+02  0.205768184200E+02
  0.107782649500E+02 -0.174100689700E+02  0.138160665800E+02
 -0.491161915704E+02 -0.702924056575E+01  0.138957544360E+02
 -0.395793687855E+02 -0.981773938865E+01  0.193404748565E+02
 -0.316421366555E+02 -0.115349550293E+02  0.226732512890E+02
 -0.237460923217E+02 -0.126123040420E+02  0.247197106868E+02
 -0.158602149905E+02 -0.131944994873E+02  0.257872431725E+02
 -0.798656686472E+01 -0.133138005922E+02  0.260016282848E+02
[...]
POINT_DATA       510
VECTORS displacement float 
    -1.87668533    -0.56800522     0.00000000
    -1.48643706    -0.78025451     0.00000000
    -1.13751362    -0.86941314     0.00000000
    -0.84745425    -0.83761909     0.00000000
    -0.58795744    -0.75056715     0.00000000
    -0.32744466    -0.59215865     0.00000000
    -0.04546628    -0.33592833     0.00000000
     0.00000000     0.00000000     0.00000000
     0.00000000     0.00000000     0.00000000
    -2.02450066    -0.45331788     0.00000000
    -2.17723769    -0.33590117     0.00000000
    -2.27942421    -0.21537576     0.00000000
    -2.34866164    -0.08195374     0.00000000
    -2.38343727     0.06574202     0.00000000
    -2.39029541     0.21974278     0.00000000
    -2.36956541     0.36705678     0.00000000
    -2.32866283     0.50619509     0.00000000
    -2.23266159     0.64641692     0.00000000
    -2.13447701     0.78120982     0.00000000
    -1.76361269     1.01806543     0.00000000
    -1.45415070     1.13567089     0.00000000
    -1.16791951     1.14410569     0.00000000
    -0.85076582     1.08681020     0.00000000
    -0.48460400     0.93848292     0.00000000
     0.02020690     0.48063044     0.00000000
     0.00000000     0.00000000     0.00000000
     0.00000000     0.00000000     0.00000000
    -1.86833989    -0.54181669     0.08033742
    -1.48297904    -0.76909295     0.12055467
    -1.13476844    -0.85644041     0.12384737
    -0.85089539    -0.82843749     0.11325473
    -0.59447839    -0.74531460     0.09074329
    -0.33258837    -0.59570937     0.06873317
    -0.04222033    -0.33682855     0.03981346
     0.00000000     0.00000000     0.00000000
     0.00000000     0.00000000     0.00000000
    -2.03471222    -0.47480291     0.09776163
    -2.17609324    -0.35561985     0.11877347
    -2.27200238    -0.22193750     0.13499480
    -2.33651514    -0.08197508     0.14228505
    -2.37252176     0.06780604     0.14732976
    -2.37660013     0.21886051     0.14706507
    -2.36085506     0.37104987     0.14380344
    -2.31955465     0.51295722     0.14081665
    -2.22112841     0.64268729     0.13754733
    -2.09000070     0.72703617     0.11704920
    -1.76537870     0.98818027     0.15847164
    -1.44977946     1.10649986     0.17313062
    -1.15302604     1.11251307     0.18333348
    -0.82480831     1.04613825     0.19800944
    -0.44513723     0.86638285     0.18193856
     0.01719131     0.42284584     0.11360604
     0.00000000     0.00000000     0.00000000
     0.00000000     0.00000000     0.00000000
    -1.86048555    -0.50145922     0.16884572
    -1.49824831    -0.75818884     0.25206185
    -1.15298632    -0.84469347     0.26157285
    -0.87588802    -0.82797673     0.23676591
    -0.61764011    -0.75573984     0.19895752
    -0.35239767    -0.60994655     0.15376336
    -0.04853498    -0.35531956     0.09082024
     0.00000000     0.00000000     0.00000000
     0.00000000     0.00000000     0.00000000
    -2.00851878    -0.49519039     0.22240065
    -2.16204258    -0.38013771     0.26105717
    -2.24823783    -0.22362231     0.27726586
    -2.30749625    -0.08462016     0.29320074
    -2.34068935     0.06841595     0.29467359
    -2.34997748     0.21675535     0.29613200
    -2.33749071     0.36496725     0.29413726
    -2.28160272     0.51264815     0.29773782
    -2.15864500     0.62050045     0.27273300
    -2.05804476     0.66286650     0.19952812
    -1.76578452     0.93417360     0.28979553
    -1.44282387     1.05154890     0.32615233
    -1.12784270     1.05503749     0.34867619
    -0.78103809     0.97390299     0.35864100
    -0.41392151     0.77957352     0.31150015
     0.01174109     0.37083604     0.17588877
     0.00000000     0.00000000     0.00000000
     0.00000000     0.00000000     0.00000000
    -1.85656112    -0.45764237     0.25529284
    -1.51672300    -0.72549511     0.38222134
    -1.17540847    -0.81471967     0.39841295
    -0.89755233    -0.80968509     0.36809853
    -0.63322801    -0.74676204     0.31958782
    -0.36404828    -0.60294334     0.25400514
    -0.05025677    -0.35861251     0.15223503
     0.00000000     0.00000000     0.00000000
     0.00000000     0.00000000     0.00000000
    -1.97204917    -0.43880010     0.33001940
    -2.10270741    -0.36352930     0.39813711
    -2.18724871    -0.23775376     0.43747862
    -2.24574339    -0.08670579     0.44473552
    -2.27027085     0.05877213     0.43898692
    -2.28037966     0.19375044     0.45324365
    -2.26613489     0.34419322     0.46664576
    -2.20447538     0.47184871     0.43138248
    -2.10323582     0.55206144     0.35595283
    -2.03090313     0.60123724     0.27411557
    -1.75944052     0.86057107     0.42062874
    -1.43140105     0.96288403     0.48920678
    -1.10425844     0.96210980     0.52224968
    -0.74967800     0.87623252     0.51538726
    -0.39325448     0.68892218     0.42734552
     0.00816784     0.33032805     0.23018763
     0.00000000     0.00000000     0.00000000
     0.00000000     0.00000000     0.00000000
    -1.85890732    -0.40502957     0.33466834
    -1.53586874    -0.66800055     0.50505942
    -1.19772790    -0.75974294     0.53567817
    -0.91393165    -0.76724588     0.50569117
    -0.64014600    -0.71201033     0.44710517
    -0.36871115    -0.57292843     0.35565552
    -0.05237279    -0.34663811     0.21455065
     0.00000000     0.00000000     0.00000000
     0.00000000     0.00000000     0.00000000
    -1.92441897    -0.35895898     0.40810090
    -1.98757685    -0.29977363     0.48404169
    -2.05049152    -0.22166246     0.55631702
    -2.12042685    -0.08701004     0.57578874
    -2.13250671     0.03979996     0.57593943
    -2.14710836     0.15988892     0.58979051
    -2.11658071     0.29492226     0.59049138
    -2.08606779     0.40164563     0.51827648
    -2.04762987     0.48028784     0.42885644
    -2.01033053     0.54045387     0.34541046
    -1.74446009     0.77139682     0.54765834
    -1.41376607     0.84514085     0.64288242
    -1.08619951     0.83235285     0.68194610
    -0.73355630     0.75320801     0.65647113
    -0.38747416     0.59448881     0.52953399
     0.00574215     0.29366170     0.28509317
     0.00000000     0.00000000     0.00000000
     0.00000000     0.00000000     0.00000000
    -1.86579428    -0.34636611     0.40441325
    -1.55390356    -0.58557955     0.61776566
    -1.21699925    -0.67581610     0.66807562
    -0.92603083    -0.69283469     0.64331564
    -0.64337170    -0.64793510     0.57156829
    -0.37194609    -0.52111767     0.45199714
    -0.05403310    -0.32341116     0.27573127
     0.00000000     0.00000000     0.00000000
     0.00000000     0.00000000     0.00000000
    -1.87884505    -0.28441606     0.46899288
    -1.56878347    -0.48386009     0.71502707
    -1.23203536    -0.56401902     0.78688025
    -0.93594583    -0.58691532     0.76674371
    -0.64872202    -0.55674157     0.68203851
    -0.37732610    -0.45326133     0.53706356
    -0.05504257    -0.28821791     0.33514408
     0.00000000     0.00000000     0.00000000
     0.00000000     0.00000000     0.00000000
    -1.89815758    -0.21938307     0.53065658
    -1.57936879    -0.36867598     0.79564374
    -1.24213666    -0.43222647     0.88291957
    -0.94609232    -0.45732516     0.86422145
    -0.66021499    -0.44744536     0.76974082
    -0.38656686    -0.37507135     0.60794234
    -0.05754240    -0.23687517     0.38621724
     0.00000000     0.00000000     0.00000000
     0.00000000     0.00000000     0.00000000
    -1.92475923    -0.14743159     0.59079579
    -1.58479322    -0.24558379     0.85788474
    -1.24838898    -0.28913423     0.95181257
    -0.95827226    -0.31829064     0.92881305
    -0.67846087    -0.32899580     0.83234501
    -0.40131530    -0.29202827     0.66450348
    -0.06869535    -0.17678988     0.41361438
     0.00000000     0.00000000     0.00000000
     0.00000000     0.00000000     0.00000000
    -1.95653234    -0.06856758     0.65166899
    -1.58757306    -0.11527429     0.89932257
    -1.25402619    -0.14630132     0.99203577
    -0.97306516    -0.18023929     0.96342806
    -0.70178040    -0.21151646     0.87129781
    -0.42180978    -0.20124988     0.70755260
    -0.07859580    -0.12953625     0.44364139
     0.00000000     0.00000000     0.00000000
     0.00000000     0.00000000     0.00000000
    -1.99088459     0.02507506     0.70006869
    -1.59177414     0.01786018     0.91964844
    -1.26323188    -0.00891556     1.00683575
    -0.99022193    -0.05100848     0.97621931
    -0.72594641    -0.09542524     0.89295017
    -0.44244513    -0.10480204     0.74017038
    -0.06818775    -0.07000521     0.47726362
     0.00000000     0.00000000     0.00000000
     0.00000000     0.00000000     0.00000000
    -1.98689540     0.13160225     0.67097836
    -1.60967647     0.15122309     0.91798644
    -1.27727308     0.12269262     1.00212917
    -1.00982879     0.07301121     0.97594239
    -0.74446059     0.02186136     0.90417825
    -0.45280423     0.00291551     0.76011964
    -0.05930121     0.00332039     0.48991729
     0.00000000     0.00000000     0.00000000
     0.00000000     0.00000000     0.00000000
    -1.98101496     0.23352845     0.61701539
    -1.63469837     0.28371545     0.89509940
    -1.29966507     0.25618122     0.98075601
    -1.02893313     0.20064169     0.96718032
    -0.75368836     0.14945435     0.90593971
    -0.44890424     0.12115905     0.76015522
    -0.05571608     0.08031673     0.47495874
     0.00000000     0.00000000     0.00000000
     0.00000000     0.00000000     0.00000000
    -1.97993194     0.32494984     0.55783762
    -1.66438608     0.41692285     0.84497508
    -1.32842633     0.39822856     0.94121255
    -1.04630507     0.34340254     0.94480943
    -0.75128556     0.29305557     0.89200162
    -0.43292138     0.24582653     0.73658217
    -0.04552151     0.14682349     0.43986933
     0.00000000     0.00000000     0.00000000
     0.00000000     0.00000000     0.00000000
    -1.98533084     0.40656593     0.48975136
    -1.69431165     0.54685563     0.76796302
    -1.36007551     0.55004479     0.87468391
    -1.05988331     0.50478923     0.89686270
    -0.74213591     0.44926728     0.84948874
    -0.41056532     0.37369834     0.69250601
    -0.00573284     0.19640520     0.39000340
     0.00000000     0.00000000     0.00000000
     0.00000000     0.00000000     0.00000000
    -1.99505122     0.47680393     0.41812495
    -1.72206732     0.66673529     0.66610135
    -1.38943155     0.70353783     0.77465418
    -1.07215837     0.67412701     0.81025414
    -0.73298624     0.60744949     0.77082848
    -0.39481465     0.49147455     0.62009957
     0.00488487     0.24870266     0.33767608
     0.00000000     0.00000000     0.00000000
     0.00000000     0.00000000     0.00000000
    -1.66696666    -0.38359968     0.00000000
    -1.39116980    -0.41122469     0.00000000
    -1.03173701    -0.49815627     0.00000000
    -0.81099314    -0.52270255     0.00000000
    -0.64093674    -0.49283093     0.00000000
    -0.46956103    -0.40400813     0.00000000
    -0.28164013    -0.28300406     0.00000000
    -0.10861164    -0.09799117     0.00000000
     0.00000000     0.00000000     0.00000000
     0.00000000     0.00000000     0.00000000
    -1.66493434    -0.36899942     0.06950388
    -1.38860387    -0.40840661     0.09065064
    -1.05155687    -0.50163570     0.12674548
    -0.85434430    -0.53540254     0.13012776
    -0.68559264    -0.50653003     0.11302959
    -0.50235465    -0.41882639     0.08735057
    -0.29527362    -0.28071562     0.05110410
    -0.11100526    -0.07812512     0.00152027
     0.00000000     0.00000000     0.00000000
     0.00000000     0.00000000     0.00000000
    -1.66836832    -0.35204110     0.13939728
    -1.40852834    -0.40817389     0.17192694
    -1.07852829    -0.49970291     0.21968319
    -0.88212732    -0.53835138     0.21988470
    -0.71227459    -0.50764563     0.18954414
    -0.52552894    -0.41999279     0.14793652
    -0.31564754    -0.28280204     0.09354816
    -0.12208296    -0.07971330     0.01965528
     0.00000000     0.00000000     0.00000000
     0.00000000     0.00000000     0.00000000
    -1.67510178    -0.32897214     0.20451998
    -1.42751403    -0.39060596     0.24343113
    -1.10143988    -0.47435642     0.29773198
    -0.90104544    -0.51330771     0.30073120
    -0.72646056    -0.48653658     0.26313675
    -0.53594421    -0.40661381     0.20821298
    -0.32369319    -0.27859978     0.13833170
    -0.12862486    -0.08163838     0.03441770
     0.00000000     0.00000000     0.00000000
     0.00000000     0.00000000     0.00000000
    -1.68517089    -0.29627218     0.26553457
    -1.44640081    -0.35698616     0.31219622
    -1.12339748    -0.42838931     0.37198864
    -0.91569766    -0.46383949     0.38043395
    -0.73305090    -0.44498536     0.33814063
    -0.53878303    -0.37853235     0.27320481
    -0.32665877    -0.26696603     0.18720729
    -0.13309254    -0.08463371     0.05541246
     0.00000000     0.00000000     0.00000000
     0.00000000     0.00000000     0.00000000
    -1.69594899    -0.25355872     0.32150439
    -1.46367481    -0.30916304     0.37598751
    -1.14203462    -0.36534605     0.44239272
    -0.92720392    -0.39526831     0.45711928
    -0.73685586    -0.38533760     0.41339812
    -0.54001922    -0.33712097     0.33877736
    -0.32847363    -0.24623528     0.23739056
    -0.13904855    -0.08562204     0.07720371
     0.00000000     0.00000000     0.00000000
     0.00000000     0.00000000     0.00000000
    -1.70705851    -0.20259041     0.37118779
    -1.47665190    -0.24866626     0.43181085
    -1.15456200    -0.28936512     0.50766075
    -0.93654028    -0.31202482     0.52985488
    -0.74277492    -0.31247462     0.48516549
    -0.54497469    -0.28410858     0.40137670
    -0.33272578    -0.21656170     0.28314246
    -0.14610927    -0.08135092     0.09810077
     0.00000000     0.00000000     0.00000000
     0.00000000     0.00000000     0.00000000
    -1.71990726    -0.14703783     0.41530083
    -1.48388579    -0.17913436     0.47840385
    -1.16125702    -0.20347627     0.56732411
    -0.94626658    -0.22096301     0.59543203
    -0.75461691    -0.23200323     0.54958811
    -0.55764731    -0.22381844     0.45570736
    -0.34062695    -0.18071197     0.32067710
    -0.15390936    -0.07433714     0.11540070
     0.00000000     0.00000000     0.00000000
     0.00000000     0.00000000     0.00000000
    -1.73433971    -0.08620329     0.45249971
    -1.48654474    -0.10311206     0.51502223
    -1.16563305    -0.11358733     0.61853874
    -0.95998273    -0.12750105     0.64962964
    -0.77478178    -0.15192344     0.60174951
    -0.57778269    -0.16013964     0.49764515
    -0.35702745    -0.14178022     0.34838925
    -0.15783556    -0.07428429     0.13087375
     0.00000000     0.00000000     0.00000000
     0.00000000     0.00000000     0.00000000
    -1.75255977    -0.02082060     0.48425896
    -1.48713901    -0.02304640     0.53759046
    -1.17232996    -0.02220040     0.65712929
    -0.97922876    -0.03953718     0.68680136
    -0.80105886    -0.07407492     0.63772909
    -0.60388557    -0.09900260     0.52447864
    -0.37639772    -0.09837980     0.36594442
    -0.17559042    -0.07138001     0.13915822
     0.00000000     0.00000000     0.00000000
     0.00000000     0.00000000     0.00000000
    -1.76715442     0.05100532     0.50040434
    -1.48929730     0.05873474     0.54698761
    -1.18420077     0.06658767     0.67563403
    -1.00158116     0.04276002     0.70440931
    -0.82742180    -0.00060459     0.65398527
    -0.63014668    -0.03761122     0.53678247
    -0.39043716    -0.05349910     0.37021544
    -0.19256028    -0.05581979     0.13931067
     0.00000000     0.00000000     0.00000000
     0.00000000     0.00000000     0.00000000
    -1.77529393     0.12783233     0.49212012
    -1.50771892     0.13846302     0.54528918
    -1.20056226     0.15180559     0.66920170
    -1.02121341     0.12149557     0.70095120
    -0.84828739     0.07184582     0.65061518
    -0.64592068     0.02525638     0.53395407
    -0.39629514    -0.00548697     0.36430103
    -0.19238788    -0.03353778     0.13598019
     0.00000000     0.00000000     0.00000000
     0.00000000     0.00000000     0.00000000
    -1.78185056     0.19997722     0.46564315
    -1.53267839     0.21494170     0.53060195
    -1.22043463     0.23283286     0.63877843
    -1.03625261     0.20181665     0.67466211
    -0.85774020     0.14568023     0.62808106
    -0.64729362     0.09223892     0.51691794
    -0.39087835     0.04697967     0.35119680
    -0.18063542    -0.01042686     0.13001930
     0.00000000     0.00000000     0.00000000
     0.00000000     0.00000000     0.00000000
    -1.79452700     0.26930700     0.42928238
    -1.55959352     0.29057131     0.49555505
    -1.24462354     0.31250740     0.58804417
    -1.04707217     0.28497950     0.62413224
    -0.85701335     0.22488063     0.58586572
    -0.63424874     0.16302022     0.48630311
    -0.37667908     0.10760712     0.33164564
    -0.17005175     0.01464068     0.11727108
     0.00000000     0.00000000     0.00000000
     0.00000000     0.00000000     0.00000000
    -1.81124100     0.33365000     0.38201262
    -1.58792669     0.36429957     0.44497993
    -1.27199213     0.39239645     0.51889612
    -1.05749855     0.37141037     0.55136246
    -0.85007106     0.30995290     0.52302822
    -0.61596148     0.23868039     0.44144825
    -0.35255193     0.17196394     0.30873660
    -0.19546262     0.05213194     0.10945417
     0.00000000     0.00000000     0.00000000
     0.00000000     0.00000000     0.00000000
    -1.82857277     0.39130073     0.32652507
    -1.61543671     0.43389197     0.38090081
    -1.29941592     0.47128388     0.43595185
    -1.06882227     0.46045919     0.46022450
    -0.84471468     0.39900365     0.44165318
    -0.60104364     0.31872017     0.38095380
    -0.33682524     0.22877433     0.27707024
    -0.18762977     0.07577346     0.10077915
     0.00000000     0.00000000     0.00000000
     0.00000000     0.00000000     0.00000000
    -1.84465462     0.44337832     0.26780222
    -1.63752733     0.49481358     0.30924627
    -1.32139405     0.54852752     0.34381500
    -1.08175700     0.54999760     0.35650278
    -0.84820442     0.48976916     0.34575084
    -0.59817562     0.39577505     0.30651555
    -0.33220928     0.27916217     0.23034331
    -0.17454144     0.08189276     0.08396735
     0.00000000     0.00000000     0.00000000
     0.00000000     0.00000000     0.00000000
    -1.85995435     0.48977579     0.20770371
    -1.65037695     0.54804834     0.23215883
    -1.33585663     0.62343071     0.24682928
    -1.09852918     0.63753933     0.24745431
    -0.86529415     0.57727451     0.24220219
    -0.61221955     0.46575116     0.22167342
    -0.33826265     0.31963435     0.17243911
    -0.17386354     0.08750629     0.06461645
     0.00000000     0.00000000     0.00000000
     0.00000000     0.00000000     0.00000000
    -1.87307733     0.52981439     0.14234843
    -1.65434086     0.59191297     0.15174531
    -1.34601650     0.69393288     0.14953260
    -1.12195432     0.71791036     0.14044751
    -0.89745380     0.65631686     0.13966477
    -0.64255377     0.52661158     0.13176939
    -0.35655949     0.35132597     0.10568990
    -0.18060765     0.09044311     0.04181655
     0.00000000     0.00000000     0.00000000
     0.00000000     0.00000000     0.00000000