# vtk DataFile Version 3.0
Example VTK
ASCII
DATASET UNSTRUCTURED_GRID
POINTS   510 float
 -0.474693340706E+02 -0.155618659472E+02  0.000000000000E+00
 -0.394812699710E+02 -0.215858630132E+02  0.000000000000E+00
 -0.315338660363E+02 -0.253172760804E+02  0.000000000000E+00
 -0.236448171841E+02 -0.276042294306E+02  0.000000000000E+00
 -0.157859894075E+02 -0.288228353653E+02  0.000000000000E+00
 -0.792591776735E+01 -0.290885499028E+02  0.000000000000E+00
 -0.443068823164E-01 -0.284120473962E+02  0.000000000000E+00
  0.485806477600E+01 -0.266469127900E+02  0.000000000000E+00
  0.971612955200E+01 -0.247938255800E+02  0.000000000000E+00
 -0.500164886199E+02 -0.124480783856E+02  0.000000000000E+00
 -0.509675871204E+02 -0.933229170615E+01  0.000000000000E+00
 -0.515348313714E+02 -0.621355782763E+01  0.000000000000E+00
 -0.518564415135E+02 -0.308234686767E+01  0.000000000000E+00
 -0.519715982231E+02  0.642739246773E-01  0.000000000000E+00
 -0.518979896614E+02  0.321541753029E+01  0.000000000000E+00
 -0.516246977877E+02  0.635999476572E+01  0.000000000000E+00
 -0.511184579238E+02  0.949733911314E+01  0.000000000000E+00
 -0.502238182375E+02  0.126362461671E+02  0.000000000000E+00
 -0.477273030064E+02  0.157698428227E+02  0.000000000000E+00
 -0.397590157420E+02  0.218207658893E+02  0.000000000000E+00
 -0.318502987665E+02  0.255826344867E+02  0.000000000000E+00
 -0.239645286940E+02  0.279105758161E+02  0.000000000000E+00
 -0.160482485221E+02  0.291587699854E+02  0.000000000000E+00
 -0.808341357651E+01  0.294342560615E+02  0.000000000000E+00
  0.193426643779E-01  0.285566342161E+02  0.000000000000E+00
  0.371063367600E+01  0.266469127900E+02  0.000000000000E+00
  0.742126735300E+01  0.247938255800E+02  0.000000000000E+00
 -0.480797686645E+02 -0.153506108276E+02  0.242576883121E+01
 -0.394787344088E+02 -0.213181002147E+02  0.337471029264E+01
 -0.315322935652E+02 -0.250031246913E+02  0.394769102108E+01
 -0.236494404603E+02 -0.272654893208E+02  0.429991616926E+01
 -0.157936453079E+02 -0.284719970134E+02  0.448189510611E+01
 -0.793221785803E+01 -0.287412181080E+02  0.452642181241E+01
 -0.423582621410E-01 -0.280673699810E+02  0.443188254440E+01
  0.487577938100E+01 -0.263526544000E+02  0.396427664200E+01
  0.974471668600E+01 -0.245950934400E+02  0.257295191300E+01
 -0.500183578187E+02 -0.123875848219E+02  0.270353064174E+01
 -0.509142082442E+02 -0.932978137011E+01  0.292513598462E+01
 -0.514557375688E+02 -0.622426590011E+01  0.307624455958E+01
 -0.517644143163E+02 -0.308990798981E+01  0.314846841671E+01
 -0.518801421360E+02  0.661330257358E-01  0.314528876558E+01
 -0.518044286217E+02  0.322284575571E+01  0.315276463083E+01
 -0.515442804647E+02  0.636921847499E+01  0.308496809143E+01
 -0.510570994301E+02  0.948298695298E+01  0.294715762223E+01
 -0.502040558932E+02  0.125515679429E+02  0.274328282618E+01
 -0.483005801970E+02  0.155319539508E+02  0.246250525523E+01
 -0.397599151324E+02  0.215350806510E+02  0.341338891595E+01
 -0.318451144052E+02  0.252525966856E+02  0.399819661024E+01
 -0.239488282353E+02  0.275494696475E+02  0.437102091886E+01
 -0.160214916416E+02  0.287725304484E+02  0.458961599082E+01
 -0.804309102997E+01  0.290114514366E+02  0.463965712314E+01
  0.173707325240E-01  0.281529237252E+02  0.450578946924E+01
  0.373898642700E+01  0.263356989800E+02  0.400177498900E+01
  0.746269299800E+01  0.245641965300E+02  0.298701071100E+01
 -0.486295449796E+02 -0.147613205493E+02  0.480165147698E+01
 -0.394939740167E+02 -0.205451728595E+02  0.668026978046E+01
 -0.315504314029E+02 -0.240962377090E+02  0.781533005647E+01
 -0.236741555150E+02 -0.262849355468E+02  0.850732834163E+01
 -0.158164988258E+02 -0.274543268314E+02  0.887332508330E+01
 -0.795178315542E+01 -0.277116405130E+02  0.895940102627E+01
 -0.484954889597E-01 -0.270572757609E+02  0.876678196472E+01
  0.492848700300E+01 -0.254771248200E+02  0.783093963700E+01
  0.982977417800E+01 -0.240037904700E+02  0.508254921200E+01
 -0.499981478359E+02 -0.120348382398E+02  0.538729502314E+01
 -0.507705464139E+02 -0.911385436155E+01  0.583878312582E+01
 -0.512268055330E+02 -0.608485065530E+01  0.613651412776E+01
 -0.514909044220E+02 -0.302773678840E+01  0.629361748290E+01
 -0.515956590514E+02  0.665341908711E-01  0.629040540770E+01
 -0.515333087437E+02  0.315578748932E+01  0.629661005357E+01
 -0.513157500383E+02  0.622203905448E+01  0.615366535164E+01
 -0.508896191436E+02  0.924227515547E+01  0.587583277253E+01
 -0.501476916001E+02  0.121563132450E+02  0.543805615507E+01
 -0.488263040344E+02  0.149188050165E+02  0.483276150548E+01
 -0.397602788361E+02  0.207186454490E+02  0.671938810625E+01
 -0.318383426203E+02  0.243015571658E+02  0.788176718611E+01
 -0.239239639427E+02  0.265109606878E+02  0.862066813686E+01
 -0.159781090880E+02  0.276716813098E+02  0.903365922969E+01
 -0.801212965194E+01  0.278807213695E+02  0.911726017152E+01
  0.118330173556E-01  0.270725492443E+02  0.885189968564E+01
  0.382334654000E+01  0.254097206600E+02  0.790501299700E+01
  0.758594989700E+01  0.238809636100E+02  0.590047130500E+01
 -0.490681814863E+02 -0.138173769495E+02  0.706135054636E+01
 -0.395123856728E+02 -0.192632720923E+02  0.982618627579E+01
 -0.315727446544E+02 -0.225985294434E+02  0.114961620412E+02
 -0.236956092895E+02 -0.246596055806E+02  0.125189156222E+02
 -0.158318994377E+02 -0.257597400431E+02  0.130635214347E+02
 -0.796333349312E+01 -0.259934406201E+02  0.131907157537E+02
 -0.502196616704E-01 -0.253745710030E+02  0.128983581563E+02
  0.501488980600E+01 -0.240418825200E+02  0.115047789100E+02
  0.996920763000E+01 -0.230344765000E+02  0.746699728000E+01
 -0.499320401692E+02 -0.113250952733E+02  0.796302393300E+01
 -0.504734508522E+02 -0.864656225354E+01  0.867889945410E+01
 -0.507956246737E+02 -0.581740295554E+01  0.916896198875E+01
 -0.509834024594E+02 -0.289483182328E+01  0.941667267105E+01
 -0.510600527656E+02  0.568194986980E-01  0.943270310281E+01
 -0.510178807560E+02  0.299794765688E+01  0.942547998976E+01
 -0.508741185280E+02  0.591980679954E+01  0.919864147677E+01
 -0.505747009491E+02  0.875075135900E+01  0.871290936654E+01
 -0.500625401601E+02  0.114342772077E+02  0.798982686383E+01
 -0.492417445240E+02  0.139569662831E+02  0.708097956787E+01
 -0.397539080710E+02  0.193954590563E+02  0.986642816788E+01
 -0.318270261291E+02  0.227443919443E+02  0.115891945922E+02
 -0.239005617247E+02  0.248102799902E+02  0.126747798526E+02
 -0.159469439738E+02  0.258880215238E+02  0.132602080997E+02
 -0.799160798827E+01  0.260787874655E+02  0.133643503387E+02
  0.825927382529E-02  0.253459819397E+02  0.129765268217E+02
  0.396163679000E+01  0.238917785000E+02  0.116136033500E+02
  0.778800305500E+01  0.227609502700E+02  0.866864271200E+01
 -0.493546654056E+02 -0.125357412578E+02  0.914638610061E+01
 -0.395314619849E+02 -0.175002611416E+02  0.127322937176E+02
 -0.315949265451E+02 -0.205394667541E+02  0.149042237648E+02
 -0.237118053277E+02 -0.224228684279E+02  0.162375787548E+02
 -0.158386778556E+02 -0.234235210021E+02  0.169467767941E+02
 -0.796793241767E+01 -0.236270929042E+02  0.171048570517E+02
 -0.523206024820E-01 -0.230606684685E+02  0.167169891399E+02
  0.513286026600E+01 -0.220822679200E+02  0.148953323400E+02
  0.101595837300E+02 -0.217110192700E+02  0.966758309400E+01
 -0.497492995740E+02 -0.103287610128E+02  0.103754207764E+02
 -0.499475537816E+02 -0.793511294936E+01  0.113679718952E+02
 -0.500400656974E+02 -0.538849110809E+01  0.120937264700E+02
 -0.501037158377E+02 -0.269449624878E+01  0.124863192697E+02
 -0.501239349006E+02  0.379505190570E-01  0.125680452851E+02
 -0.501301330170E+02  0.276361869522E+01  0.125005702332E+02
 -0.501056303891E+02  0.545784488685E+01  0.121283816537E+02
 -0.500453850146E+02  0.803278412549E+01  0.114029681454E+02
 -0.498717666696E+02  0.104458374256E+02  0.103971368038E+02
 -0.495053365417E+02  0.126670218409E+02  0.915818871250E+01
 -0.397389479715E+02  0.176003060273E+02  0.127768935721E+02
 -0.318095394451E+02  0.206218909437E+02  0.150137582603E+02
 -0.238826765723E+02  0.224856542679E+02  0.164156631441E+02
 -0.159309899118E+02  0.234631695164E+02  0.171571979102E+02
 -0.798592127418E+01  0.236478354287E+02  0.172792097219E+02
  0.583631630237E-02  0.230072737953E+02  0.167878507725E+02
  0.415045201100E+01  0.218192492600E+02  0.150362282400E+02
  0.806387725500E+01  0.212317349700E+02  0.112233633700E+02
 -0.494594530631E+02 -0.109493666752E+02  0.110048913352E+02
 -0.395494345323E+02 -0.152979622753E+02  0.153273072269E+02
 -0.316140556484E+02 -0.179644071548E+02  0.179537207917E+02
 -0.237237552229E+02 -0.196209243972E+02  0.195689662120E+02
 -0.158418092046E+02 -0.204987695794E+02  0.204207463577E+02
 -0.797110961878E+01 -0.206713184434E+02  0.206013175823E+02
 -0.539575668148E-01 -0.201762342452E+02  0.201281542501E+02
  0.527949355900E+01 -0.196465332300E+02  0.179191132600E+02
  0.103962147800E+02 -0.200660066800E+02  0.116301209300E+02
 -0.493745615649E+02 -0.909860848127E+01  0.125972028231E+02
 -0.395642617700E+02 -0.127140764567E+02  0.175448289465E+02
 -0.316289610673E+02 -0.149357190380E+02  0.205640996013E+02
 -0.237335509067E+02 -0.163213575152E+02  0.224202381147E+02
 -0.158470755458E+02 -0.170581049133E+02  0.233920666947E+02
 -0.797642814337E+01 -0.172033190972E+02  0.235904283345E+02
 -0.549308992218E-01 -0.167909921790E+02  0.230487553183E+02
  0.545708352200E+01 -0.166965753800E+02  0.205768184200E+02
  0.107782649500E+02 -0.174100689700E+02  0.138160665800E+02
 -0.491097011828E+02 -0.702771516267E+01  0.138879970314E+02
 -0.395748074299E+02 -0.981548689465E+01  0.193313799294E+02
 -0.316389488485E+02 -0.115330529860E+02  0.226647927663E+02
 -0.237436051149E+02 -0.126106366782E+02  0.247124695649E+02
 -0.158584808176E+02 -0.131929656894E+02  0.257815123873E+02
 -0.798558791817E+01 -0.133125101391E+02  0.259977500216E+02
[...]
POINT_DATA       510
VECTORS displacement float 
    -1.86933407    -0.56186595     0.00000000
    -1.48126997    -0.77251247     0.00000000
    -1.13386604    -0.86141506     0.00000000
    -0.84481718    -0.83058794     0.00000000
    -0.58598941    -0.74503608     0.00000000
    -0.32591777    -0.58854990     0.00000000
    -0.04430688    -0.33424811     0.00000000
     0.00000000     0.00000000     0.00000000
     0.00000000     0.00000000     0.00000000
    -2.01648862    -0.44807839     0.00000000
    -2.16758712    -0.33229171     0.00000000
    -2.26877081    -0.21355783     0.00000000
    -2.33725792    -0.08234687     0.00000000
    -2.37159822     0.06427392     0.00000000
    -2.37880607     0.21541753     0.00000000
    -2.35863723     0.35999477     0.00000000
    -2.31845792     0.49733911     0.00000000
    -2.22381824     0.63624617     0.00000000
    -2.12730301     0.76984282     0.00000000
    -1.75901574     1.00741535     0.00000000
    -1.45029877     1.12677347     0.00000000
    -1.16452869     1.13693433     0.00000000
    -0.84824852     1.08097070     0.00000000
    -0.48341358     0.93425606     0.00000000
     0.01934266     0.47883493     0.00000000
     0.00000000     0.00000000     0.00000000
     0.00000000     0.00000000     0.00000000
    -1.86173467    -0.53528572     0.07925186
    -1.47873441    -0.76099655     0.11878494
    -1.13229357    -0.84835591     0.12195149
    -0.84944046    -0.82147579     0.11159589
    -0.59364531    -0.73988203     0.08955960
    -0.33221786    -0.59210040     0.06803956
    -0.04235826    -0.33525500     0.03954703
     0.00000000     0.00000000     0.00000000
     0.00000000     0.00000000     0.00000000
    -2.02663914    -0.46902525     0.09632235
    -2.16654331    -0.35140701     0.11699843
    -2.26147431    -0.21961301     0.13299636
    -2.32527995    -0.08180364     0.14036407
    -2.36095855     0.06613303     0.14528877
    -2.36529425     0.21474141     0.14466028
    -2.35001720     0.36456559     0.14171989
    -2.30943450     0.50461259     0.13902007
    -2.21233721     0.63300837     0.13607454
    -2.08254621     0.71662884     0.11598828
    -1.75991513     0.97797699     0.15746356
    -1.44511441     1.09782791     0.17245708
    -1.14882824     1.10545612     0.18270064
    -0.82149164     1.04041547     0.19728048
    -0.44309103     0.86233373     0.18127487
     0.01737073     0.42080875     0.11345396
     0.00000000     0.00000000     0.00000000
     0.00000000     0.00000000     0.00000000
    -1.85397448    -0.49547281     0.16639656
    -1.49397402    -0.75050020     0.24859075
    -1.15043140    -0.83733173     0.25805339
    -0.87415552    -0.82168935     0.23381812
    -0.61649883    -0.75075286     0.19680794
    -0.35178316    -0.60652980     0.15241669
    -0.04849549    -0.35370179     0.09026482
     0.00000000     0.00000000     0.00000000
     0.00000000     0.00000000     0.00000000
    -2.00081754    -0.48956108     0.21910167
    -2.15276699    -0.37598713     0.25717544
    -2.23799275    -0.22146587     0.27312934
    -2.29664116    -0.08448859     0.28896459
    -2.32959849     0.06653419     0.29040541
    -2.33904548     0.21253929     0.29195716
    -2.32693726     0.35865427     0.29028056
    -2.27183972     0.50440792     0.29422509
    -2.15036130     0.61103609     0.26986281
    -2.05073353     0.65295728     0.19750659
    -1.76027884     0.92397279     0.28770908
    -1.43834262     1.04265119     0.32449052
    -1.12396394     1.04771449     0.34715792
    -0.77810909     0.96810734     0.35714209
    -0.41212965     0.77561066     0.31027583
     0.01183302     0.36897527     0.17538254
     0.00000000     0.00000000     0.00000000
     0.00000000     0.00000000     0.00000000
    -1.85014750    -0.45227909     0.25149305
    -1.51238567    -0.71844097     0.37712286
    -1.17274465    -0.80819772     0.39343348
    -0.89560929    -0.80411634     0.36393674
    -0.63189944    -0.74223769     0.31646730
    -0.36333349    -0.59975468     0.25198651
    -0.05021966    -0.35706865     0.15130403
     0.00000000     0.00000000     0.00000000
     0.00000000     0.00000000     0.00000000
    -1.96480988    -0.43411853     0.32515381
    -2.09420966    -0.35996566     0.39230286
    -2.17784525    -0.23579527     0.43109476
    -2.23573753    -0.08669427     0.43829831
    -2.26005277     0.05681950     0.43270310
    -2.27021583     0.18981010     0.44710563
    -2.25633911     0.33819912     0.46077424
    -2.19545976     0.46415476     0.42631277
    -2.09530987     0.54330047     0.35195674
    -2.02371053     0.59186842     0.27112207
    -1.75390807     0.85062794     0.41736475
    -1.42702613     0.95406022     0.48646603
    -1.10056172     0.95479075     0.51980097
    -0.74694397     0.87051917     0.51315397
    -0.39160799     0.68510153     0.42562110
     0.00825927     0.32847959     0.22947269
     0.00000000     0.00000000     0.00000000
     0.00000000     0.00000000     0.00000000
    -1.85255238    -0.40048634     0.32960732
    -1.53146198    -0.66190684     0.49851322
    -1.19492655    -0.75425958     0.52942932
    -0.91180533    -0.76253746     0.50042713
    -0.63867786    -0.70810421     0.44306045
    -0.36793242    -0.57010856     0.35297736
    -0.05232060    -0.34525168     0.21327280
     0.00000000     0.00000000     0.00000000
     0.00000000     0.00000000     0.00000000
    -1.91763281    -0.35535915     0.40201892
    -1.98032349    -0.29724283     0.47699516
    -2.04273540    -0.22029776     0.54844931
    -2.11199716    -0.08728796     0.56775970
    -2.12393490     0.03795052     0.56804529
    -2.13841434     0.15641041     0.58201066
    -2.10830009     0.28965154     0.58310449
    -2.07815472     0.39491400     0.51199141
    -2.04009991     0.47243556     0.42373494
    -2.00322351     0.53176692     0.34140993
    -1.73894797     0.76195173     0.54311307
    -1.40953945     0.83668377     0.63896382
    -1.08267657     0.82532330     0.67851152
    -0.73098991     0.74775273     0.65348157
    -0.38592127     0.59085109     0.52733003
     0.00583632     0.29185701     0.28413443
     0.00000000     0.00000000     0.00000000
     0.00000000     0.00000000     0.00000000
    -1.85945306    -0.34276496     0.39828962
    -1.54943453    -0.58070097     0.61004592
    -1.21405565    -0.67150199     0.66081563
    -0.92375522    -0.68910095     0.63714276
    -0.64180920    -0.64476730     0.56674408
    -0.37110962    -0.51877518     0.44877432
    -0.05395757    -0.32223197     0.27415197
     0.00000000     0.00000000     0.00000000
     0.00000000     0.00000000     0.00000000
    -1.87244853    -0.28182970     0.46194790
    -1.56426177    -0.48029596     0.70647465
    -1.22896107    -0.56092460     0.77889243
    -0.93355091    -0.58420590     0.75990714
    -0.64707555    -0.55438857     0.67664990
    -0.37642814    -0.45143941     0.53344399
    -0.05493090    -0.28727584     0.33333853
     0.00000000     0.00000000     0.00000000
     0.00000000     0.00000000     0.00000000
    -1.89166719    -0.21785767     0.52289917
    -1.57480743    -0.36642348     0.78654881
    -1.23894885    -0.43032443     0.87446105
    -0.94360511    -0.45565780     0.85698032
    -0.65848082    -0.44591156     0.76401004
    -0.38558792    -0.37378090     0.60406408
    -0.05739313    -0.23616349     0.38428081
     0.00000000     0.00000000     0.00000000
     0.00000000     0.00000000     0.00000000
    -1.91808961    -0.14696888     0.58249460
    -1.58020844    -0.24460773     0.84848331
    -1.24511340    -0.28840518     0.94310061
    -0.95570590    -0.31764022     0.92139436
    -0.67662434    -0.32826789     0.82647456
    -0.40023045    -0.29126496     0.66046125
    -0.06856183    -0.17625432     0.41160169
     0.00000000     0.00000000     0.00000000
     0.00000000     0.00000000     0.00000000
    -1.94962095    -0.06918990     0.64294285
    -1.58296775    -0.11557801     0.88981677
    -1.25066677    -0.14674011     0.98324562
    -0.97042442    -0.18059273     0.95602456
    -0.69982447    -0.21157114     0.86542616
    -0.42061052    -0.20102079     0.70343330
    -0.07844320    -0.12924574     0.44148620
     0.00000000     0.00000000     0.00000000
     0.00000000     0.00000000     0.00000000
    -1.98364934     0.02340419     0.69107147
    -1.58713019     0.01620977     0.91018611
    -1.25979221    -0.01054679     0.99814268
    -0.98749139    -0.05237203     0.96897129
    -0.72385893    -0.09627215     0.88717604
    -0.44114934    -0.10513160     0.73602109
    -0.06800167    -0.07010685     0.47504846
     0.00000000     0.00000000     0.00000000
     0.00000000     0.00000000     0.00000000
    -1.97970873     0.12867496     0.66238487
    -1.60486862     0.14817242     0.90868105
    -1.27377342     0.11980219     0.99372499
    -1.00697977     0.07060935     0.96896807
    -0.74224855     0.02018123     0.89857790
    -0.45143128     0.00195550     0.75600975
    -0.05911405     0.00282408     0.48776053
     0.00000000     0.00000000     0.00000000
     0.00000000     0.00000000     0.00000000
    -1.97387529     0.22923497     0.60912597
    -1.62970739     0.27916461     0.88618014
    -1.29607661     0.25196631     0.97284035
    -1.02595584     0.19717095     0.96061058
    -0.75137552     0.14688132     0.90060492
    -0.44747361     0.11951874     0.75620137
    -0.05552202     0.07946387     0.47292610
     0.00000000     0.00000000     0.00000000
     0.00000000     0.00000000     0.00000000
    -1.97284522     0.31933140     0.55077029
    -1.65921473     0.41083704     0.83677415
    -1.32470765     0.39268814     0.93400958
    -1.04320107     0.33884358     0.93879702
    -0.74890732     0.28958483     0.88706661
    -0.43145177     0.24348943     0.73292281
    -0.04535376     0.14565924     0.43794836
     0.00000000     0.00000000     0.00000000
     0.00000000     0.00000000     0.00000000
    -1.97828062     0.39974646     0.48367150
    -1.68898596     0.53935361     0.76080327
    -1.35619229     0.54327730     0.86842809
    -1.05665318     0.49920734     0.89157943
    -0.73972054     0.44496417     0.84509296
    -0.40906907     0.37076697     0.68930556
    -0.00565416     0.19484006     0.38834646
     0.00000000     0.00000000     0.00000000
     0.00000000     0.00000000     0.00000000
    -1.98799675     0.46898014     0.41306848
    -1.71662474     0.65808621     0.66021879
    -1.38537440     0.69577436     0.76952928
    -1.06879191     0.66768871     0.80584713
    -0.73051778     0.60246650     0.76710272
    -0.39330633     0.48812175     0.61739475
     0.00496660     0.24695477     0.33643933
     0.00000000     0.00000000     0.00000000
     0.00000000     0.00000000     0.00000000
    -1.66287297    -0.37829736     0.00000000
    -1.38885202    -0.40569969     0.00000000
    -1.03105823    -0.49209511     0.00000000
    -0.81080104    -0.51677590     0.00000000
    -0.64097620    -0.48750380     0.00000000
    -0.46990405    -0.39985039     0.00000000
    -0.28230396    -0.28031892     0.00000000
    -0.10969705    -0.09729780     0.00000000
     0.00000000     0.00000000     0.00000000
     0.00000000     0.00000000     0.00000000
    -1.66064054    -0.36426378     0.06823902
    -1.38574055    -0.40363909     0.08915831
    -1.04996890    -0.49625346     0.12506370
    -0.85285237    -0.53011029     0.12882788
    -0.68417302    -0.50183057     0.11220483
    -0.50120767    -0.41512098     0.08690295
    -0.29453023    -0.27825248     0.05079934
    -0.11058951    -0.07718771     0.00144098
     0.00000000     0.00000000     0.00000000
     0.00000000     0.00000000     0.00000000
    -1.66412133    -0.34764869     0.13701118
    -1.40566515    -0.40360181     0.16916852
    -1.07682926    -0.49461810     0.21654729
    -0.88043822    -0.53341902     0.21725027
    -0.71064963    -0.50339583     0.18765171
    -0.52425879    -0.41667998     0.14669962
    -0.31487523    -0.28056633     0.09280769
    -0.12176935    -0.07891340     0.01935282
     0.00000000     0.00000000     0.00000000
     0.00000000     0.00000000     0.00000000
    -1.67085656    -0.32504658     0.20096824
    -1.42466486    -0.38652636     0.23949488
    -1.09965939    -0.46988465     0.29335704
    -0.89920851    -0.50899572     0.29689534
    -0.72467992    -0.48287899     0.26023168
    -0.53455040    -0.40376496     0.20621703
    -0.32283005    -0.27665248     0.13709591
    -0.12827012    -0.08092495     0.03396198
     0.00000000     0.00000000     0.00000000
     0.00000000     0.00000000     0.00000000
    -1.68087029    -0.29297487     0.26088858
    -1.44346098    -0.35358754     0.30715039
    -1.12145051    -0.42471593     0.36649357
    -0.91369412    -0.46027805     0.37551337
    -0.73116399    -0.44196096     0.33429635
    -0.53731934    -0.37614627     0.27045918
    -0.32575357    -0.26528738     0.18548242
    -0.13272548    -0.08398934     0.05476879
     0.00000000     0.00000000     0.00000000
     0.00000000     0.00000000     0.00000000
    -1.69155160    -0.25105424     0.31591760
    -1.46055526    -0.30658021     0.36999174
    -1.13982158    -0.36255714     0.43598934
    -0.92499963    -0.39251523     0.45132852
    -0.73485706    -0.38296621     0.40876857
    -0.53849907    -0.33520193     0.33539105
    -0.32752763    -0.24482616     0.23522326
    -0.13866944    -0.08504359     0.07639765
     0.00000000     0.00000000     0.00000000
     0.00000000     0.00000000     0.00000000
    -1.70254093    -0.20097672     0.36486546
    -1.47332254    -0.24696127     0.42512410
    -1.15205979    -0.28746038     0.50060947
    -0.93411883    -0.31008341     0.52344361
    -0.74064539    -0.31074574     0.47996565
    -0.54337251    -0.28265291     0.39750497
    -0.33172311    -0.21543243     0.28063750
    -0.14571431    -0.08084668     0.09716828
     0.00000000     0.00000000     0.00000000
     0.00000000     0.00000000     0.00000000
    -1.71525203    -0.14633710     0.40844735
    -1.48036578    -0.17830263     0.47125477
    -1.15851178    -0.20243386     0.55986738
    -0.94364716    -0.21981113     0.58865765
    -0.75233292    -0.23089052     0.54403218
    -0.55592721    -0.22281272     0.45153982
    -0.33954116    -0.17987764     0.31795772
    -0.15347192    -0.07392923     0.11439508
     0.00000000     0.00000000     0.00000000
     0.00000000     0.00000000     0.00000000
    -1.72954175    -0.08640150     0.44532693
    -1.48290556    -0.10315670     0.50763399
    -1.16271861    -0.11339932     0.61088651
    -0.95719144    -0.12712673     0.64271539
    -0.77232947    -0.15141225     0.59604828
    -0.57590352    -0.15957233     0.49335263
    -0.35585121    -0.14125245     0.34559633
    -0.15730183    -0.07402198     0.12981838
     0.00000000     0.00000000     0.00000000
     0.00000000     0.00000000     0.00000000
    -1.74763592    -0.02194716     0.47694591
    -1.48344262    -0.02397678     0.53018235
    -1.16933307    -0.02290901     0.64946320
    -0.97628631    -0.03996582     0.67995060
    -0.79843416    -0.07417387     0.63206111
    -0.60182895    -0.09889942     0.52021872
    -0.37511609    -0.09817505     0.36318758
    -0.17498195    -0.07125168     0.13811433
     0.00000000     0.00000000     0.00000000
     0.00000000     0.00000000     0.00000000
    -1.76215345     0.04891361     0.49315933
    -1.48560499     0.05675912     0.53979730
    -1.18117661     0.06486581     0.66816019
    -0.99852256     0.04149092     0.69777889
    -0.82463511    -0.00139604     0.64851050
    -0.62792302    -0.03801011     0.53267905
    -0.38905327    -0.05367150     0.36757544
    -0.19192499    -0.05581322     0.13834545
     0.00000000     0.00000000     0.00000000
     0.00000000     0.00000000     0.00000000
    -1.77027152     0.12468257     0.48520587
    -1.50400702     0.13539403     0.53847064
    -1.19756220     0.14894889     0.66214950
    -1.01809602     0.11927546     0.69466581
    -0.84536764     0.07027526     0.64546562
    -0.64357766     0.02426205     0.53009514
    -0.39483067    -0.00605733     0.36182210
    -0.19174397    -0.03372049     0.13509796
     0.00000000     0.00000000     0.00000000
     0.00000000     0.00000000     0.00000000
    -1.77684463     0.19573530     0.45926706
    -1.52896855     0.21076862     0.52427376
    -1.21747683     0.22880002     0.63233256
    -1.03311904     0.19852884     0.66886460
    -0.85475277     0.14323971     0.62335025
    -0.64489208     0.09057640     0.51336497
    -0.38936461     0.04596520     0.34888648
    -0.17996388    -0.01077163     0.12918376
     0.00000000     0.00000000     0.00000000
     0.00000000     0.00000000     0.00000000
    -1.78948611     0.26394057     0.42357046
    -1.55582090     0.28524502     0.48992085
    -1.24164185     0.30729542     0.58236525
    -1.04392402     0.28058705     0.61896879
    -0.85401206     0.22153246     0.58163218
    -0.63184813     0.16066079     0.48309295
    -0.37514955     0.10612635     0.32951557
    -0.16934693     0.01417661     0.11649153
     0.00000000     0.00000000     0.00000000
     0.00000000     0.00000000     0.00000000
    -1.80611398     0.32722734     0.37711059
    -1.58398680     0.35787169     0.44016191
    -1.26885313     0.38608478     0.51411295
    -1.05426859     0.36599419     0.54694607
    -0.84705836     0.30574856     0.51935528
    -0.61357553     0.23566852     0.43862032
    -0.35105772     0.17006529     0.30677937
    -0.19464471     0.05168246     0.10875348
     0.00000000     0.00000000     0.00000000
     0.00000000     0.00000000     0.00000000
    -1.82329876     0.38395450     0.32251364
    -1.61124960     0.42650777     0.37699876
    -1.29598434     0.46406183     0.43210211
    -1.06541232     0.45419679     0.45660473
    -0.84162867     0.39409292     0.43857838
    -0.59864363     0.31517499     0.37853223
    -0.33531905     0.22656336     0.27534796
    -0.18684755     0.07528809     0.10014379
     0.00000000     0.00000000     0.00000000
     0.00000000     0.00000000     0.00000000
    -1.83922092     0.43531092     0.26468753
    -1.63308197     0.48672293     0.30622935
    -1.31761490     0.54063134     0.34085442
    -1.07808863     0.54313157     0.35366343
    -0.84495313     0.48435807     0.34326800
    -0.59568896     0.39187846     0.30451146
    -0.33066059     0.27675674     0.22888655
    -0.17379719     0.08141461     0.08340633
     0.00000000     0.00000000     0.00000000
     0.00000000     0.00000000     0.00000000
    -1.85434749     0.48116687     0.20543895
    -1.64571629     0.53945575     0.22998216
    -1.33175644     0.61509181     0.24467473
    -1.09455140     0.63032356     0.24532733
    -0.86180113     0.57159532     0.24027214
    -0.60955828     0.46170009     0.22008375
    -0.33663704     0.31717036     0.17125702
    -0.17311624     0.08709437     0.06412294
     0.00000000     0.00000000     0.00000000
     0.00000000     0.00000000     0.00000000
    -1.86733899     0.52083689     0.14087261
    -1.64955440     0.58299662     0.15034801
    -1.34163049     0.68534776     0.14810413
    -1.11764242     0.71059094     0.13896146
    -0.89362976     0.65060117     0.13824475
    -0.63964255     0.52259928     0.13060307
    -0.35479530     0.34893236     0.10482151
    -0.17981394     0.09009308     0.04137938
     0.00000000     0.00000000     0.00000000
     0.00000000     0.00000000     0.00000000