# vtk DataFile Version 3.0
Example VTK
ASCII
DATASET UNSTRUCTURED_GRID
POINTS   510 float
 -0.474598290794E+02 -0.155569563992E+02  0.000000000000E+00
 -0.394742625199E+02 -0.215795253224E+02  0.000000000000E+00
 -0.315288100664E+02 -0.253105795416E+02  0.000000000000E+00
 -0.236412032508E+02 -0.275981899512E+02  0.000000000000E+00
 -0.157834658708E+02 -0.288178745753E+02  0.000000000000E+00
 -0.792432802735E+01 -0.290850701749E+02  0.000000000000E+00
 -0.436428908220E-01 -0.284102723412E+02  0.000000000000E+00
  0.485806477600E+01 -0.266469127900E+02  0.000000000000E+00
  0.971612955200E+01 -0.247938255800E+02  0.000000000000E+00
 -0.500060878193E+02 -0.124440090826E+02  0.000000000000E+00
 -0.509558242989E+02 -0.932942743756E+01  0.000000000000E+00
 -0.515222195319E+02 -0.621201651822E+01  0.000000000000E+00
 -0.518432384725E+02 -0.308236418085E+01  0.000000000000E+00
 -0.519580847931E+02  0.631735814821E-01  0.000000000000E+00
 -0.518846391010E+02  0.321238476457E+01  0.000000000000E+00
 -0.516117440855E+02  0.635512662953E+01  0.000000000000E+00
 -0.511060636938E+02  0.949115880515E+01  0.000000000000E+00
 -0.502124709735E+02  0.126290019318E+02  0.000000000000E+00
 -0.477171779005E+02  0.157616504560E+02  0.000000000000E+00
 -0.397514639157E+02  0.218123602213E+02  0.000000000000E+00
 -0.318440840436E+02  0.255748675486E+02  0.000000000000E+00
 -0.239593862102E+02  0.279037016300E+02  0.000000000000E+00
 -0.160444627284E+02  0.291527578496E+02  0.000000000000E+00
 -0.808133994753E+01  0.294294603159E+02  0.000000000000E+00
  0.188919019325E-01  0.285543303384E+02  0.000000000000E+00
  0.371063367600E+01  0.266469127900E+02  0.000000000000E+00
  0.742126735300E+01  0.247938255800E+02  0.000000000000E+00
 -0.480706329987E+02 -0.153456194836E+02  0.242495118981E+01
 -0.394721698786E+02 -0.213116397776E+02  0.337343140247E+01
 -0.315277942639E+02 -0.249964436914E+02  0.394635029812E+01
 -0.236463566434E+02 -0.272595207180E+02  0.429874457094E+01
 -0.157916210325E+02 -0.284671019276E+02  0.448104265756E+01
 -0.793114169581E+01 -0.287377219258E+02  0.452588755353E+01
 -0.423028636515E-01 -0.280656373315E+02  0.443164408267E+01
  0.487577938100E+01 -0.263526544000E+02  0.396427664200E+01
  0.974471668600E+01 -0.245950934400E+02  0.257295191300E+01
 -0.500078900520E+02 -0.123831790045E+02  0.270247826825E+01
 -0.509025013228E+02 -0.932655932949E+01  0.292384180950E+01
 -0.514432166442E+02 -0.622246276729E+01  0.307478219442E+01
 -0.517513340721E+02 -0.308966069550E+01  0.314702165670E+01
 -0.518667980074E+02  0.649214243550E-01  0.314377304557E+01
 -0.517912265726E+02  0.321991864604E+01  0.315108669494E+01
 -0.515314046536E+02  0.636461134194E+01  0.308346752646E+01
 -0.510447730576E+02  0.947701830113E+01  0.294581452494E+01
 -0.501927671104E+02  0.125445549339E+02  0.274211426063E+01
 -0.482904596534E+02  0.155243737789E+02  0.246161314608E+01
 -0.397519537675E+02  0.215269581859E+02  0.341243282920E+01
 -0.318385477193E+02  0.252450066457E+02  0.399736936928E+01
 -0.239433702424E+02  0.275427367937E+02  0.437018047453E+01
 -0.160174244866E+02  0.287666923229E+02  0.458868398290E+01
 -0.804074778577E+01  0.290069646554E+02  0.463879729601E+01
  0.174089964038E-01  0.281506933027E+02  0.450536922349E+01
  0.373898642700E+01  0.263356989800E+02  0.400177498900E+01
  0.746269299800E+01  0.245641965300E+02  0.298701071100E+01
 -0.486204765090E+02 -0.147567366956E+02  0.479985363806E+01
 -0.394873470999E+02 -0.205389532079E+02  0.667771103523E+01
 -0.315458324781E+02 -0.240899584008E+02  0.781274322743E+01
 -0.236708499473E+02 -0.262793054181E+02  0.850513871897E+01
 -0.158142411131E+02 -0.274496209255E+02  0.887167563067E+01
 -0.795052414703E+01 -0.277081918755E+02  0.895830224891E+01
 -0.483361227177E-01 -0.270554689672E+02  0.876625576574E+01
  0.492848700300E+01 -0.254771248200E+02  0.783093963700E+01
  0.982977417800E+01 -0.240037904700E+02  0.508254921200E+01
 -0.499879719123E+02 -0.120304325602E+02  0.538488956340E+01
 -0.507590309473E+02 -0.911056055761E+01  0.583594580756E+01
 -0.512145197486E+02 -0.608312632596E+01  0.613349988061E+01
 -0.514781178817E+02 -0.302748953153E+01  0.629049690007E+01
 -0.515826646189E+02  0.652125561667E-01  0.628728301545E+01
 -0.515203931620E+02  0.315283062559E+01  0.629355362613E+01
 -0.513030940050E+02  0.621754064699E+01  0.615078134400E+01
 -0.508775919380E+02  0.923635468788E+01  0.587311200011E+01
 -0.501368438820E+02  0.121494665601E+02  0.543574758390E+01
 -0.488163379284E+02  0.149116639937E+02  0.483113830551E+01
 -0.397522885280E+02  0.207106696643E+02  0.671750646861E+01
 -0.318318920066E+02  0.242940050780E+02  0.788000653175E+01
 -0.239187442901E+02  0.265042642298E+02  0.861891424205E+01
 -0.159743695678E+02  0.276660230118E+02  0.903188832470E+01
 -0.801000933636E+01  0.278765381940E+02  0.911575433593E+01
  0.118453529547E-01  0.270705583154E+02  0.885112569215E+01
  0.382334654000E+01  0.254097206600E+02  0.790501299700E+01
  0.758594989700E+01  0.238809636100E+02  0.590047130500E+01
 -0.490591741673E+02 -0.138132530886E+02  0.705858681399E+01
 -0.395056725048E+02 -0.192574825165E+02  0.982239570209E+01
 -0.315680235740E+02 -0.225927739024E+02  0.114924214262E+02
 -0.236921252788E+02 -0.246543994632E+02  0.125157270409E+02
 -0.158294924670E+02 -0.257552938743E+02  0.130610370394E+02
 -0.796198157344E+01 -0.259901237394E+02  0.131889963204E+02
 -0.500564646177E-01 -0.253727870736E+02  0.128974728668E+02
  0.501488980600E+01 -0.240418825200E+02  0.115047789100E+02
  0.996920763000E+01 -0.230344765000E+02  0.746699728000E+01
 -0.499222313518E+02 -0.113213652117E+02  0.795947568972E+01
 -0.504625462139E+02 -0.864361947434E+01  0.867461969942E+01
 -0.507839911792E+02 -0.581571238513E+01  0.916427329330E+01
 -0.509712733357E+02 -0.289463432700E+01  0.941194429434E+01
 -0.510477533028E+02  0.555116698300E-01  0.942809350237E+01
 -0.510055979946E+02  0.299521925092E+01  0.942091085419E+01
 -0.508620883155E+02  0.591554762441E+01  0.919416179614E+01
 -0.505633008094E+02  0.874524504461E+01  0.870896641399E+01
 -0.500520477864E+02  0.114280049419E+02  0.798668743136E+01
 -0.492319074448E+02  0.139502786678E+02  0.707863583371E+01
 -0.397459161948E+02  0.193878141997E+02  0.986356133589E+01
 -0.318206669826E+02  0.227371218734E+02  0.115864124592E+02
 -0.238955144005E+02  0.248038492299E+02  0.126720592600E+02
 -0.159434048591E+02  0.258826877392E+02  0.132576230825E+02
 -0.798962894966E+01  0.260749417061E+02  0.133622685950E+02
  0.828284496969E-02  0.253441239272E+02  0.129754943666E+02
  0.396163679000E+01  0.238917785000E+02  0.116136033500E+02
  0.778800305500E+01  0.227609502700E+02  0.866864271200E+01
 -0.493456847900E+02 -0.125322084017E+02  0.914273168358E+01
 -0.395246596632E+02 -0.174951447183E+02  0.127273880089E+02
 -0.315900710367E+02 -0.205344143648E+02  0.148994313043E+02
 -0.237081755696E+02 -0.224182302366E+02  0.162334343438E+02
 -0.158361724416E+02 -0.234194901444E+02  0.169434623690E+02
 -0.796652750992E+01 -0.236240446381E+02  0.171025185512E+02
 -0.521427465509E-01 -0.230589934150E+02  0.167157538585E+02
  0.513286026600E+01 -0.220822679200E+02  0.148953323400E+02
  0.101595837300E+02 -0.217110192700E+02  0.966758309400E+01
 -0.497398986322E+02 -0.103258571144E+02  0.103710174742E+02
 -0.499376936886E+02 -0.793292110149E+01  0.113628195390E+02
 -0.500297584328E+02 -0.538715263754E+01  0.120879268242E+02
 -0.500928353979E+02 -0.269443703920E+01  0.124803804556E+02
 -0.501129590086E+02  0.367806190679E-01  0.125621966062E+02
 -0.501190633500E+02  0.276124790932E+01  0.124947437620E+02
 -0.500948782258E+02  0.545413062126E+01  0.121227517339E+02
 -0.500349377341E+02  0.802800290467E+01  0.113981496512E+02
 -0.498616691810E+02  0.104402624400E+02  0.103932215559E+02
 -0.494955893560E+02  0.126608564906E+02  0.915511093941E+01
 -0.397310045384E+02  0.175931630474E+02  0.127729916557E+02
 -0.318033081322E+02  0.206151344602E+02  0.150099239533E+02
 -0.238777780816E+02  0.224797353711E+02  0.164119806811E+02
 -0.159275908465E+02  0.234583147035E+02  0.171538310897E+02
 -0.798401369982E+01  0.236443531501E+02  0.172766005919E+02
  0.586717640452E-02  0.230055493811E+02  0.167865429614E+02
  0.415045201100E+01  0.218192492600E+02  0.150362282400E+02
  0.806387725500E+01  0.212317349700E+02  0.112233633700E+02
 -0.494504641976E+02 -0.109465041263E+02  0.110004788602E+02
 -0.395425491488E+02 -0.152937282906E+02  0.153214625286E+02
 -0.316090732331E+02 -0.179602121646E+02  0.179480276570E+02
 -0.237200077044E+02 -0.196170062749E+02  0.195639664265E+02
 -0.158392406142E+02 -0.204953000240E+02  0.204166858697E+02
 -0.796965787556E+01 -0.206686577060E+02  0.205984319485E+02
 -0.537646799800E-01 -0.201747255516E+02  0.201265949974E+02
  0.527949355900E+01 -0.196465332300E+02  0.179191132600E+02
  0.103962147800E+02 -0.200660066800E+02  0.116301209300E+02
 -0.493655177184E+02 -0.909646541449E+01  0.125921245982E+02
 -0.395573143560E+02 -0.127108346652E+02  0.175382705821E+02
 -0.316238689696E+02 -0.149324883192E+02  0.205576920356E+02
 -0.237297125960E+02 -0.163182750918E+02  0.224145502000E+02
 -0.158444433609E+02 -0.170553117280E+02  0.233874074443E+02
 -0.797492608845E+01 -0.172011132253E+02  0.235871030094E+02
 -0.547161170575E-01 -0.167896982873E+02  0.230469114291E+02
  0.545708352200E+01 -0.166965753800E+02  0.205768184200E+02
  0.107782649500E+02 -0.174100689700E+02  0.138160665800E+02
 -0.491005594938E+02 -0.702631936648E+01  0.138823659229E+02
 -0.395678143280E+02 -0.981327716887E+01  0.193243119136E+02
 -0.316337692266E+02 -0.115308300327E+02  0.226578713127E+02
 -0.237396842313E+02 -0.126084643704E+02  0.247062989293E+02
 -0.158557652757E+02 -0.131909020252E+02  0.257764315665E+02
 -0.798401243237E+01 -0.133107918411E+02  0.259940935121E+02
[...]
POINT_DATA       510
VECTORS displacement float 
    -1.85982908    -0.55695640     0.00000000
    -1.47426252    -0.76617478     0.00000000
    -1.12881007    -0.85471852     0.00000000
    -0.84120325    -0.82454846     0.00000000
    -0.58346587    -0.74007529     0.00000000
    -0.32432803    -0.58507017     0.00000000
    -0.04364289    -0.33247305     0.00000000
     0.00000000     0.00000000     0.00000000
     0.00000000     0.00000000     0.00000000
    -2.00608782    -0.44400908     0.00000000
    -2.15582430    -0.32942744     0.00000000
    -2.25615897    -0.21201652     0.00000000
    -2.32405488    -0.08236418     0.00000000
    -2.35808479     0.06317358     0.00000000
    -2.36545551     0.21238476     0.00000000
    -2.34568353     0.35512663     0.00000000
    -2.30606369     0.49115881     0.00000000
    -2.21247097     0.62900193     0.00000000
    -2.11717790     0.76165046     0.00000000
    -1.75146392     0.99900968     0.00000000
    -1.44408404     1.11900653     0.00000000
    -1.15938621     1.13006014     0.00000000
    -0.84446273     1.07495856     0.00000000
    -0.48133995     0.92946032     0.00000000
     0.01889190     0.47653105     0.00000000
     0.00000000     0.00000000     0.00000000
     0.00000000     0.00000000     0.00000000
    -1.85259901    -0.53029437     0.07843421
    -1.47216988    -0.75453612     0.11750605
    -1.12779426    -0.84167491     0.12061076
    -0.84635664    -0.81550719     0.11042429
    -0.59162103    -0.73498695     0.08870715
    -0.33114170    -0.58860422     0.06750530
    -0.04230286    -0.33352235     0.03930857
     0.00000000     0.00000000     0.00000000
     0.00000000     0.00000000     0.00000000
    -2.01617137    -0.46461943     0.09526998
    -2.15483639    -0.34818497     0.11570426
    -2.24895338    -0.21780988     0.13153399
    -2.31219970    -0.08155635     0.13891731
    -2.34761442     0.06492142     0.14377305
    -2.35209220     0.21181430     0.14298235
    -2.33714139     0.35995845     0.14021932
    -2.29710813     0.49864394     0.13767697
    -2.20104843     0.62599536     0.13490597
    -2.07242566     0.70904867     0.11509617
    -1.75195377     0.96985453     0.15650747
    -1.43854772     1.09023787     0.17162983
    -1.14337024     1.09872326     0.18186019
    -0.81742449     1.03457734     0.19634847
    -0.44074779     0.85784695     0.18041504
     0.01740900     0.41857832     0.11303371
     0.00000000     0.00000000     0.00000000
     0.00000000     0.00000000     0.00000000
    -1.84490601    -0.49088896     0.16459872
    -1.48734710    -0.74428055     0.24603201
    -1.14583248    -0.83105242     0.25546656
    -0.87084995    -0.81605922     0.23162850
    -0.61424111    -0.74604696     0.19515849
    -0.35052415    -0.60308117     0.15131791
    -0.04833612    -0.35189500     0.08973862
     0.00000000     0.00000000     0.00000000
     0.00000000     0.00000000     0.00000000
    -1.99064161    -0.48515540     0.21669621
    -2.14125153    -0.37269332     0.25433813
    -2.22570697    -0.21974154     0.27011509
    -2.28385462    -0.08424133     0.28584401
    -2.31660406     0.06521256     0.28728302
    -2.32612990     0.20958242     0.28890074
    -2.31428123     0.35415586     0.28739655
    -2.25981252     0.49848745     0.29150432
    -2.13951358     0.60418940     0.26755423
    -2.04076743     0.64581625     0.19588339
    -1.75228853     0.91599700     0.28582744
    -1.43189201     1.03509910     0.32272987
    -1.11874429     1.04101803     0.34540402
    -0.77436957     0.96244904     0.35537118
    -0.41000934     0.77142748     0.30877000
     0.01184535     0.36698435     0.17460855
     0.00000000     0.00000000     0.00000000
     0.00000000     0.00000000     0.00000000
    -1.84114018    -0.44815523     0.24872932
    -1.50567250    -0.71265140     0.37333229
    -1.16802357    -0.80244218     0.38969287
    -0.89212528    -0.79891022     0.36074816
    -0.62949247    -0.73779152     0.31398291
    -0.36198157    -0.59643780     0.25026708
    -0.05005646    -0.35528472     0.15041874
     0.00000000     0.00000000     0.00000000
     0.00000000     0.00000000     0.00000000
    -1.95500106    -0.43038847     0.32160557
    -2.08330502    -0.35702288     0.38802310
    -2.16621176    -0.23410470     0.42640606
    -2.22360841    -0.08649678     0.43356994
    -2.24775330     0.05551167     0.42809350
    -2.25793306     0.18708170     0.44253650
    -2.24430890     0.33393994     0.45629456
    -2.18405962     0.45864845     0.42236982
    -2.08481750     0.53702820     0.34881731
    -2.01387345     0.58518081     0.26877834
    -1.74591619     0.84298308     0.41449792
    -1.42066698     0.94679015     0.48368390
    -1.09551440     0.94835999     0.51708038
    -0.74340486     0.86518539     0.51056895
    -0.38962895     0.68125577     0.42353935
     0.00828284     0.32662158     0.22844024
     0.00000000     0.00000000     0.00000000
     0.00000000     0.00000000     0.00000000
    -1.84357176    -0.39695348     0.32595290
    -1.52465966    -0.65679042     0.49360751
    -1.19007104    -0.74920719     0.52463686
    -0.90817557    -0.75789927     0.49628272
    -0.63617244    -0.70407335     0.43974603
    -0.36652751    -0.56706030     0.35063886
    -0.05214275    -0.34357663     0.21203752
     0.00000000     0.00000000     0.00000000
     0.00000000     0.00000000     0.00000000
    -1.90823187    -0.35245525     0.39761561
    -1.97046340    -0.29505098     0.47184280
    -2.03242813    -0.21895929     0.54264966
    -2.10111672    -0.08722875     0.56182089
    -2.11295901     0.03678062     0.56219661
    -2.12734467     0.15403962     0.57618419
    -2.09754793     0.28593727     0.57747457
    -2.06770744     0.39013278     0.50717291
    -2.03000242     0.46686058     0.41981969
    -1.99347633     0.52560157     0.33833216
    -1.73100454     0.75480875     0.53921116
    -1.40330813     0.82992729     0.63512951
    -1.07777808     0.81940440     0.67482906
    -0.72759085     0.74289791     0.65011475
    -0.38401370     0.58736881     0.52472090
     0.00586718     0.29013259     0.28282662
     0.00000000     0.00000000     0.00000000
     0.00000000     0.00000000     0.00000000
    -1.85046420    -0.33990241     0.39387714
    -1.54254915    -0.57646698     0.60420122
    -1.20907323    -0.66730700     0.65512250
    -0.92000770    -0.68518282     0.63214298
    -0.63924061    -0.64129774     0.56268359
    -0.36965788    -0.51611445     0.44588869
    -0.05376468    -0.32072327     0.27259272
     0.00000000     0.00000000     0.00000000
     0.00000000     0.00000000     0.00000000
    -1.86340469    -0.27968663     0.45686968
    -1.55731436    -0.47705417     0.69991628
    -1.22386897    -0.55769388     0.77248487
    -0.92971260    -0.58112347     0.75421923
    -0.64444336    -0.55159539     0.67199065
    -0.37492609    -0.44923354     0.53011867
    -0.05471612    -0.28598195     0.33149464
     0.00000000     0.00000000     0.00000000
     0.00000000     0.00000000     0.00000000
    -1.88252550    -0.21646187     0.51726806
    -1.56781433    -0.36421376     0.77948079
    -1.23376923    -0.42810147     0.86753959
    -0.93968423    -0.45348549     0.85080969
    -0.65576528    -0.44384790     0.75892922
    -0.38401243    -0.37206260     0.60040757
    -0.05715196    -0.23512912     0.38222170
     0.00000000     0.00000000     0.00000000
     0.00000000     0.00000000     0.00000000
    -1.90878789    -0.14634890     0.57640666
    -1.57319303    -0.24343080     0.84108429
    -1.23986600    -0.28720997     0.93585607
    -0.95170316    -0.31639004     0.91495044
    -0.67379656    -0.32695005     0.82114335
    -0.39855482    -0.29004504     0.65656086
    -0.06828972    -0.17547830     0.40942059
     0.00000000     0.00000000     0.00000000
     0.00000000     0.00000000     0.00000000
    -1.94011233    -0.06936919     0.63645370
    -1.57593667    -0.11545472     0.88225467
    -1.24535520    -0.14656425     0.97585172
    -0.96633123    -0.18025210     0.94948977
    -0.69686203    -0.21098231     0.85998038
    -0.41881269    -0.20032438     0.69936822
    -0.07813216    -0.12872507     0.43914720
     0.00000000     0.00000000     0.00000000
     0.00000000     0.00000000     0.00000000
    -1.97388168     0.02238384     0.68430465
    -1.58006915     0.01524639     0.90259938
    -1.25440575    -0.01138256     0.99076301
    -0.98329460    -0.05291634     0.96247921
    -0.72075131    -0.09641197     0.88171382
    -0.43923974    -0.10498742     0.73184402
    -0.06770849    -0.06994753     0.47258494
     0.00000000     0.00000000     0.00000000
     0.00000000     0.00000000     0.00000000
    -1.96997456     0.12667852     0.65592328
    -1.59766888     0.14609593     0.90119212
    -1.26831053     0.11794274     0.98651357
    -1.00265817     0.06918357     0.96261687
    -0.73901773     0.01928825     0.89316855
    -0.44944943     0.00148072     0.75179300
    -0.05884502     0.00258088     0.48528947
     0.00000000     0.00000000     0.00000000
     0.00000000     0.00000000     0.00000000
    -1.96418088     0.22622417     0.60320130
    -1.62233835     0.27593204     0.87896790
    -1.29050069     0.24904748     0.96594727
    -1.02150884     0.19483950     0.95449223
    -0.74806193     0.14517691     0.89532510
    -0.44547074     0.11836955     0.75206186
    -0.05526035     0.07882555     0.47055881
     0.00000000     0.00000000     0.00000000
     0.00000000     0.00000000     0.00000000
    -1.96318190     0.31536762     0.54545779
    -1.65166641     0.40643072     0.83008924
    -1.31898098     0.38868606     0.92760240
    -1.03863750     0.33555632     0.93303052
    -0.74556445     0.28702186     0.88203232
    -0.42947223     0.24164081     0.72899886
    -0.04513259     0.14467782     0.43573752
     0.00000000     0.00000000     0.00000000
     0.00000000     0.00000000     0.00000000
    -1.96861912     0.39492449     0.47907931
    -1.68127419     0.53384582     0.75489062
    -1.35029073     0.53821614     0.86270701
    -1.05198570     0.49494460     0.88632695
    -0.73638245     0.44154297     0.84045925
    -0.40713629     0.36826063     0.68573597
    -0.00559926     0.19352228     0.38640891
     0.00000000     0.00000000     0.00000000
     0.00000000     0.00000000     0.00000000
    -1.97831133     0.46344039     0.40922644
    -1.70877429     0.65164685     0.65527284
    -1.37929810     0.68976984     0.76468692
    -1.06401726     0.66251524     0.80129690
    -0.72717481     0.59825948     0.76303662
    -0.39140695     0.48507379     0.61428033
     0.00499291     0.24539564     0.33485166
     0.00000000     0.00000000     0.00000000
     0.00000000     0.00000000     0.00000000
    -1.65564262    -0.37447201     0.00000000
    -1.38347266    -0.40168381     0.00000000
    -1.02774032    -0.48754509     0.00000000
    -0.80844730    -0.51223680     0.00000000
    -0.63923324    -0.48335707     0.00000000
    -0.46878635    -0.39655141     0.00000000
    -0.28183727    -0.27810485     0.00000000
    -0.10990154    -0.09662061     0.00000000
     0.00000000     0.00000000     0.00000000
     0.00000000     0.00000000     0.00000000
    -1.65332427    -0.36075740     0.06737952
    -1.38012216    -0.39999012     0.08811330
    -1.04615691    -0.49201151     0.12380615
    -0.84974107    -0.52582461     0.12775568
    -0.68160717    -0.49793870     0.11143531
    -0.49929912    -0.41199646     0.08641287
    -0.29337896    -0.27615846     0.05049597
    -0.11010418    -0.07646206     0.00139463
     0.00000000     0.00000000     0.00000000
     0.00000000     0.00000000     0.00000000
    -1.65680863    -0.34436761     0.13535341
    -1.39998016    -0.40005614     0.16722272
    -1.07286868    -0.49053223     0.21426620
    -0.87713113    -0.52930456     0.21523258
    -0.70788561    -0.49972809     0.18611766
    -0.52220818    -0.41375223     0.14563392
    -0.31364151    -0.27858545     0.09216083
    -0.12129524    -0.07825085     0.01914066
     0.00000000     0.00000000     0.00000000
     0.00000000     0.00000000     0.00000000
    -1.66351909    -0.32207441     0.19851204
    -1.41892286    -0.38328806     0.23673023
    -1.09557964    -0.46618804     0.29021085
    -0.89575697    -0.50527038     0.29403049
    -0.72178243    -0.47957249     0.25797086
    -0.53239549    -0.40111217     0.20459430
    -0.32152038    -0.27483304     0.13606902
    -0.12775442    -0.08030540     0.03362761
     0.00000000     0.00000000     0.00000000
     0.00000000     0.00000000     0.00000000
    -1.67347539    -0.29042836     0.25768759
    -1.43761336    -0.35080132     0.30361287
    -1.11721584    -0.42156843     0.36255892
    -0.91010458    -0.45708395     0.37186697
    -0.72818261    -0.43910065     0.33134546
    -0.53510929    -0.37381385     0.26827277
    -0.32440761    -0.26364339     0.18406850
    -0.13218576    -0.08340191     0.05427755
     0.00000000     0.00000000     0.00000000
     0.00000000     0.00000000     0.00000000
    -1.68408047    -0.24904760     0.31206666
    -1.45456925    -0.30436212     0.36577920
    -1.13539680    -0.36005666     0.43138559
    -0.92126816    -0.38994180     0.44701865
    -0.73180072    -0.38061874     0.40520523
    -0.53624810    -0.33323206     0.33269437
    -0.32615008    -0.24338473     0.23344224
    -0.13810149    -0.08449235     0.07576081
     0.00000000     0.00000000     0.00000000
     0.00000000     0.00000000     0.00000000
    -1.69498795    -0.19958893     0.36049042
    -1.46719835    -0.24538083     0.42039077
    -1.14745227    -0.28564902     0.49548349
    -0.93024700    -0.30817979     0.51860876
    -0.73750031    -0.30894610     0.47590816
    -0.54105930    -0.28107891     0.39438443
    -0.33029881    -0.21422314     0.27855463
    -0.14511475    -0.08035140     0.09640714
     0.00000000     0.00000000     0.00000000
     0.00000000     0.00000000     0.00000000
    -1.70759815    -0.14558981     0.40366615
    -1.47413270    -0.17739066     0.46614640
    -1.15376289    -0.20133166     0.55435923
    -0.93964491    -0.21859023     0.58344939
    -0.74907179    -0.22964980     0.53960993
    -0.55351282    -0.22164808     0.44811352
    -0.33804694    -0.17892546     0.31565802
    -0.15282660    -0.07350738     0.11354691
     0.00000000     0.00000000     0.00000000
     0.00000000     0.00000000     0.00000000
    -1.72178121    -0.08630954     0.44027067
    -1.47660786    -0.10293063     0.50229198
    -1.15787079    -0.11301418     0.60512935
    -0.95305962    -0.12658961     0.63728113
    -0.76892040    -0.15071946     0.59140279
    -0.57334634    -0.15882141     0.48974210
    -0.35425895    -0.14057063     0.34317742
    -0.15659974    -0.07367638     0.12890257
     0.00000000     0.00000000     0.00000000
     0.00000000     0.00000000     0.00000000
    -1.73976141    -0.02253541     0.47172160
    -1.47711428    -0.02445836     0.52476378
    -1.16442055    -0.02326209     0.64358825
    -0.97201711    -0.04010379     0.67444376
    -0.79485669    -0.07402539     0.62732934
    -0.59910210    -0.09856423     0.51654653
    -0.37341233    -0.09778623     0.36073306
    -0.17419132    -0.07098098     0.13718016
     0.00000000     0.00000000     0.00000000
     0.00000000     0.00000000     0.00000000
    -1.75419647     0.04760725     0.48792264
    -1.47927187     0.05549709     0.53446374
    -1.17620948     0.06372835     0.66233333
    -0.99412288     0.04068048     0.69233618
    -0.82089274    -0.00181441     0.64383018
    -0.62503144    -0.03810918     0.52904916
    -0.38725678    -0.05360410     0.36516546
    -0.19106771    -0.05564848     0.13744477
     0.00000000     0.00000000     0.00000000
     0.00000000     0.00000000     0.00000000
    -1.76227717     0.12259783     0.48016821
    -1.49760485     0.13333046     0.53333809
    -1.19255219     0.14698412     0.65656267
    -1.01360089     0.11775418     0.68941171
    -0.84149053     0.06925322     0.64096025
    -0.64057533     0.02368160     0.52659577
    -0.39297572    -0.00632954     0.35950990
    -0.19088232    -0.03371528     0.13424584
     0.00000000     0.00000000     0.00000000
     0.00000000     0.00000000     0.00000000
    -1.76883521     0.19287218     0.45459193
    -1.52248705     0.20791692     0.51944463
    -1.21242154     0.22600333     0.62715164
    -1.02856284     0.19623764     0.66393827
    -0.85080654     0.14156950     0.61912279
    -0.64185098     0.08946836     0.51006878
    -0.38749889     0.04532007     0.34669964
    -0.17912266    -0.01091376     0.12837547
     0.00000000     0.00000000     0.00000000
     0.00000000     0.00000000     0.00000000
    -1.78141845     0.26029859     0.41935272
    -1.54922262     0.28158618     0.48556026
    -1.23649598     0.30367241     0.57773183
    -1.03932027     0.27750214     0.61451567
    -0.85005356     0.21918091     0.57777997
    -0.62883836     0.15900247     0.48005880
    -0.37331480     0.10507481     0.32748100
    -0.16851827     0.01390274     0.11575372
     0.00000000     0.00000000     0.00000000
     0.00000000     0.00000000     0.00000000
    -1.79794960     0.32285749     0.37345486
    -1.57722064     0.35344102     0.43637923
    -1.26354166     0.38167585     0.51014663
    -1.04958548     0.36214651     0.54308960
    -0.84310705     0.30272578     0.51597200
    -0.61061864     0.23346805     0.43591043
    -0.34930546     0.16862171     0.30490394
    -0.19367346     0.05130242     0.10807854
     0.00000000     0.00000000     0.00000000
     0.00000000     0.00000000     0.00000000
    -1.81501354     0.37894809     0.31948603
    -1.60427922     0.42138952     0.37388200
    -1.29044226     0.45896437     0.42886417
    -1.06059957     0.44966723     0.45342529
    -0.83764932     0.39046089     0.43573846
    -0.59571586     0.31247985     0.37620600
    -0.33359990     0.22480277     0.27368352
    -0.18590906     0.07482041     0.09952985
     0.00000000     0.00000000     0.00000000
     0.00000000     0.00000000     0.00000000
    -1.83081722     0.42978626     0.26229795
    -1.62592195     0.48106866     0.30378382
    -1.31183064     0.53496843     0.33834920
    -1.07310183     0.53803979     0.35119076
    -0.84087323     0.48021513     0.34101318
    -0.59271841     0.38878781     0.30261551
    -0.32892647     0.27475639     0.22749222
    -0.17291270     0.08093538     0.08288273
     0.00000000     0.00000000     0.00000000
     0.00000000     0.00000000     0.00000000
    -1.84582111     0.47522995     0.20366539
    -1.63841370     0.53338864     0.22819642
    -1.32576638     0.60898789     0.24287237
    -1.08935359     0.62480322     0.24354185
    -0.85754260     0.56706669     0.23860521
    -0.60645067     0.45833071     0.21864685
    -0.33484138     0.31502331     0.17016993
    -0.17222812     0.08663048     0.06368968
     0.00000000     0.00000000     0.00000000
     0.00000000     0.00000000     0.00000000
    -1.85871381     0.51459219     0.13969750
    -1.64217832     0.57663283     0.14919828
    -1.33546385     0.67891466     0.14695885
    -1.11220236     0.70478747     0.13781826
    -0.88910535     0.64582674     0.13713937
    -0.63631344     0.51907021     0.12964418
    -0.35287269     0.34672398     0.10408580
    -0.17888096     0.08964938     0.04104245
     0.00000000     0.00000000     0.00000000
     0.00000000     0.00000000     0.00000000