# vtk DataFile Version 3.0
Example VTK
ASCII
DATASET UNSTRUCTURED_GRID
POINTS   510 float
 -0.463812533505E+02 -0.152155875075E+02  0.000000000000E+00
 -0.386322571109E+02 -0.211205878362E+02  0.000000000000E+00
 -0.308904189540E+02 -0.248031337463E+02  0.000000000000E+00
 -0.231726079818E+02 -0.271151402619E+02  0.000000000000E+00
 -0.154593868343E+02 -0.283894065398E+02  0.000000000000E+00
 -0.774582121597E+01 -0.287503962412E+02  0.000000000000E+00
 -0.191342641218E-01 -0.282223357169E+02  0.000000000000E+00
  0.485806477600E+01 -0.266469127900E+02  0.000000000000E+00
  0.971612955200E+01 -0.247938255800E+02  0.000000000000E+00
 -0.488399940215E+02 -0.121717719792E+02  0.000000000000E+00
 -0.496959116292E+02 -0.912437724785E+01  0.000000000000E+00
 -0.502043227867E+02 -0.608424953436E+01  0.000000000000E+00
 -0.504816916089E+02 -0.302619539484E+01  0.000000000000E+00
 -0.505775492048E+02  0.188611453523E-01  0.000000000000E+00
 -0.505001538646E+02  0.308823367533E+01  0.000000000000E+00
 -0.502378006877E+02  0.613250490663E+01  0.000000000000E+00
 -0.497599406380E+02  0.919452780240E+01  0.000000000000E+00
 -0.489190859200E+02  0.122430281970E+02  0.000000000000E+00
 -0.464914735254E+02  0.153011490073E+02  0.000000000000E+00
 -0.387453840443E+02  0.212110656583E+02  0.000000000000E+00
 -0.310275420059E+02  0.249131242505E+02  0.000000000000E+00
 -0.233058126458E+02  0.272420340601E+02  0.000000000000E+00
 -0.155757376652E+02  0.285332636697E+02  0.000000000000E+00
 -0.781236629167E+01  0.289014136451E+02  0.000000000000E+00
  0.462466878933E-02  0.282864209039E+02  0.000000000000E+00
  0.371063367600E+01  0.266469127900E+02  0.000000000000E+00
  0.742126735300E+01  0.247938255800E+02  0.000000000000E+00
 -0.469961267978E+02 -0.150198631258E+02  0.237714601516E+01
 -0.386316073605E+02 -0.208593941236E+02  0.330278601474E+01
 -0.308902745677E+02 -0.244967651619E+02  0.387439738173E+01
 -0.231748042295E+02 -0.267818613876E+02  0.423364269030E+01
 -0.154628215910E+02 -0.280413243159E+02  0.442947078218E+01
 -0.774889258100E+01 -0.284005775384E+02  0.448710165579E+01
 -0.187753134387E-01 -0.278766743496E+02  0.440965931192E+01
  0.487577938100E+01 -0.263526544000E+02  0.396427664200E+01
  0.974471668600E+01 -0.245950934400E+02  0.257295191300E+01
 -0.488361921368E+02 -0.120985705701E+02  0.264437094078E+01
 -0.496431578785E+02 -0.910997707916E+01  0.285320800529E+01
 -0.501295460512E+02 -0.609093109650E+01  0.299429662369E+01
 -0.503970978777E+02 -0.303419019672E+01  0.306279667858E+01
 -0.504923548510E+02  0.191688548401E-01  0.305621954293E+01
 -0.504139153813E+02  0.309731947288E+01  0.306378159453E+01
 -0.501616205732E+02  0.613882132273E+01  0.299938056217E+01
 -0.497028521232E+02  0.917532780733E+01  0.286201009485E+01
 -0.489049214639E+02  0.121590563707E+02  0.265949690745E+01
 -0.470907698405E+02  0.150950210923E+02  0.239212019867E+01
 -0.387454591757E+02  0.209431667567E+02  0.331860596240E+01
 -0.310250997889E+02  0.245995316774E+02  0.389720264400E+01
 -0.232999422349E+02  0.268988094528E+02  0.426457158831E+01
 -0.155649143807E+02  0.281701372515E+02  0.447645428397E+01
 -0.779607367820E+01  0.285201728723E+02  0.453616544713E+01
  0.474712211815E-02  0.279168475446E+02  0.444136895107E+01
  0.373898642700E+01  0.263356989800E+02  0.400177498900E+01
  0.746269299800E+01  0.245641965300E+02  0.298701071100E+01
 -0.475498951167E+02 -0.144545912360E+02  0.469930729641E+01
 -0.386378751265E+02 -0.200932626056E+02  0.653027067277E+01
 -0.308973452388E+02 -0.235971777912E+02  0.766087198306E+01
 -0.231847322872E+02 -0.258020165188E+02  0.836917349376E+01
 -0.154716143055E+02 -0.270177358066E+02  0.875833946730E+01
 -0.775739115849E+01 -0.273628645476E+02  0.887123739336E+01
 -0.210864939970E-01 -0.268561544711E+02  0.871545170806E+01
  0.492848700300E+01 -0.254771248200E+02  0.783093963700E+01
  0.982977417800E+01 -0.240037904700E+02  0.508254921200E+01
 -0.488334409107E+02 -0.117350593922E+02  0.525293981841E+01
 -0.495071952985E+02 -0.887758045179E+01  0.567999660903E+01
 -0.499151424620E+02 -0.595184720046E+01  0.596837368036E+01
 -0.501410802354E+02 -0.296847661458E+01  0.611551700524E+01
 -0.502271031005E+02  0.190586457567E-01  0.611226834894E+01
 -0.501588617906E+02  0.303261381979E+01  0.611751713075E+01
 -0.499466778940E+02  0.599373641610E+01  0.597351424065E+01
 -0.495596930369E+02  0.893467873396E+01  0.569316530482E+01
 -0.488854781687E+02  0.117746488037E+02  0.526804761053E+01
 -0.476355433843E+02  0.145203873950E+02  0.471271569612E+01
 -0.387453532910E+02  0.201589465751E+02  0.654627415393E+01
 -0.310228135524E+02  0.236802484246E+02  0.769040733602E+01
 -0.232904361861E+02  0.258932504853E+02  0.841786367507E+01
 -0.155485603501E+02  0.271104999884E+02  0.882818287102E+01
 -0.778397107088E+01  0.274393298392E+02  0.894095687786E+01
  0.186538720326E-02  0.268663391514E+02  0.875329214442E+01
  0.382334654000E+01  0.254097206600E+02  0.790501299700E+01
  0.758594989700E+01  0.238809636100E+02  0.590047130500E+01
 -0.479908564691E+02 -0.135372208167E+02  0.690641137938E+01
 -0.386450511614E+02 -0.188309961515E+02  0.959898291719E+01
 -0.309068221588E+02 -0.221176440017E+02  0.112610474083E+02
 -0.231931454114E+02 -0.241877964776E+02  0.123041951288E+02
 -0.154783982002E+02 -0.253287109700E+02  0.128785175123E+02
 -0.776217512988E+01 -0.256491061613E+02  0.130447239820E+02
 -0.222930669038E-01 -0.251718415443E+02  0.128119416090E+02
  0.501488980600E+01 -0.240418825200E+02  0.115047789100E+02
  0.996920763000E+01 -0.230344765000E+02  0.746699728000E+01
 -0.487894831800E+02 -0.110594499206E+02  0.776417661205E+01
 -0.492463375671E+02 -0.842092967184E+01  0.843605249927E+01
 -0.495210372183E+02 -0.567441830409E+01  0.890332018617E+01
 -0.496712344723E+02 -0.283529824329E+01  0.914610186873E+01
 -0.497340364669E+02  0.174910397384E-01  0.916695964804E+01
 -0.496856797685E+02  0.288723286763E+01  0.915201384771E+01
 -0.495492486112E+02  0.570529745401E+01  0.891430866774E+01
 -0.492926509738E+02  0.846800864803E+01  0.845250242343E+01
 -0.488353728911E+02  0.110963664089E+02  0.777107381656E+01
 -0.480667939895E+02  0.135952932763E+02  0.691643493702E+01
 -0.387430964579E+02  0.188798364773E+02  0.961492251217E+01
 -0.310176685517E+02  0.221748794999E+02  0.113015142886E+02
 -0.232821416861E+02  0.242462971142E+02  0.123702492079E+02
 -0.155357473174E+02  0.253825711232E+02  0.129648024779E+02
 -0.777712080301E+01  0.256885674304E+02  0.131231267736E+02
  0.146793468837E-02  0.251625116552E+02  0.128483154565E+02
  0.396163679000E+01  0.238917785000E+02  0.116136033500E+02
  0.778800305500E+01  0.227609502700E+02  0.866864271200E+01
 -0.482765098578E+02 -0.122879317570E+02  0.894367858775E+01
 -0.386525125927E+02 -0.171021878015E+02  0.124319317001E+02
 -0.309163232841E+02 -0.200915605617E+02  0.145883653947E+02
 -0.231998542477E+02 -0.219761207189E+02  0.159425028740E+02
 -0.154818842583E+02 -0.230132922519E+02  0.166877861190E+02
 -0.776434362436E+01 -0.233007022955E+02  0.169003066313E+02
 -0.233849253973E-01 -0.228652330177E+02  0.165950649890E+02
  0.513286026600E+01 -0.220822679200E+02  0.148953323400E+02
  0.101595837300E+02 -0.217110192700E+02  0.966758309400E+01
 -0.486362471318E+02 -0.101119672680E+02  0.101299301310E+02
 -0.487888923446E+02 -0.774775429930E+01  0.110720492201E+02
 -0.488499091963E+02 -0.525547922968E+01  0.117577722163E+02
 -0.488671280722E+02 -0.263561016456E+01  0.121356569883E+02
 -0.488817929015E+02  0.112690414373E-01  0.122195235152E+02
 -0.488789145167E+02  0.267208752141E+01  0.121431841381E+02
 -0.488698046185E+02  0.527483660156E+01  0.117655980639E+02
 -0.488330057636E+02  0.779135298093E+01  0.110888218871E+02
 -0.486728318784E+02  0.101496725520E+02  0.101300285045E+02
 -0.483417960972E+02  0.123415969757E+02  0.895030882683E+01
 -0.387372652572E+02  0.171382342016E+02  0.124498772294E+02
 -0.310104633394E+02  0.201214526649E+02  0.146347076111E+02
 -0.232750684155E+02  0.219973937873E+02  0.160177076400E+02
 -0.155295745673E+02  0.230279763022E+02  0.167804217443E+02
 -0.777506423879E+01  0.233104471797E+02  0.169806412682E+02
 -0.539058915032E-03  0.228441382247E+02  0.166297675009E+02
  0.415045201100E+01  0.218192492600E+02  0.150362282400E+02
  0.806387725500E+01  0.212317349700E+02  0.112233633700E+02
 -0.483778826106E+02 -0.107375605585E+02  0.107600766188E+02
 -0.386593954910E+02 -0.149488744727E+02  0.149598560089E+02
 -0.309249525287E+02 -0.175663869004E+02  0.175599691481E+02
 -0.232046062089E+02 -0.192178507409E+02  0.191933796061E+02
 -0.154843690988E+02 -0.201263646193E+02  0.200897277378E+02
 -0.776558546371E+01 -0.203755187435E+02  0.203415059918E+02
 -0.247646419540E-01 -0.199944726774E+02  0.199714749958E+02
  0.527949355900E+01 -0.196465332300E+02  0.179191132600E+02
  0.103962147800E+02 -0.200660066800E+02  0.116301209300E+02
 -0.482864611098E+02 -0.892505795830E+01  0.123139687379E+02
 -0.386655825840E+02 -0.124252434924E+02  0.171192502117E+02
 -0.309315869912E+02 -0.146038866672E+02  0.201003919310E+02
 -0.232095479537E+02 -0.159803798284E+02  0.219724344442E+02
 -0.154876394834E+02 -0.167392290894E+02  0.229972924587E+02
 -0.776851852532E+01 -0.169472647834E+02  0.232822962321E+02
 -0.252808199265E-01 -0.166299160690E+02  0.228585258394E+02
  0.545708352200E+01 -0.166965753800E+02  0.205768184200E+02
  0.107782649500E+02 -0.174100689700E+02  0.138160665800E+02
 -0.480093667346E+02 -0.689286261203E+01  0.135667361111E+02
 -0.386705137055E+02 -0.959547965960E+01  0.188579105581E+02
 -0.309363173190E+02 -0.112788086981E+02  0.221442472026E+02
 -0.232146300332E+02 -0.123456835414E+02  0.242076695664E+02
 -0.154932103655E+02 -0.129376852146E+02  0.253363407544E+02
 -0.777328963283E+01 -0.131018929254E+02  0.256497407017E+02
[...]
POINT_DATA       510
VECTORS displacement float 
    -0.78125335    -0.21558751     0.00000000
    -0.63225711    -0.30723730     0.00000000
    -0.49041895    -0.34727273     0.00000000
    -0.37260798    -0.34149877     0.00000000
    -0.25938683    -0.31160725     0.00000000
    -0.14582122    -0.25039624     0.00000000
    -0.01913426    -0.14453643     0.00000000
     0.00000000     0.00000000     0.00000000
     0.00000000     0.00000000     0.00000000
    -0.83999402    -0.17177198     0.00000000
    -0.89591163    -0.12437725     0.00000000
    -0.93826223    -0.08424953     0.00000000
    -0.96250802    -0.02619539     0.00000000
    -0.97754920     0.01886115     0.00000000
    -0.98097027     0.08823368     0.00000000
    -0.97174013     0.13250491     0.00000000
    -0.95994064     0.19452780     0.00000000
    -0.91908592     0.24302820     0.00000000
    -0.89147353     0.30114901     0.00000000
    -0.74538404     0.39771512     0.00000000
    -0.62754201     0.45726323     0.00000000
    -0.50581265     0.46839257     0.00000000
    -0.37573767     0.45546438     0.00000000
    -0.21236629     0.40141365     0.00000000
     0.00462467     0.20862161     0.00000000
     0.00000000     0.00000000     0.00000000
     0.00000000     0.00000000     0.00000000
    -0.77809281    -0.20453802     0.03062904
    -0.63160736    -0.30229046     0.04686066
    -0.49027457    -0.34199638     0.04865785
    -0.37480423    -0.33784786     0.04532241
    -0.26282159    -0.30920934     0.03713527
    -0.14889258    -0.25145983     0.02871940
    -0.01877531    -0.14455937     0.01732380
     0.00000000     0.00000000     0.00000000
     0.00000000     0.00000000     0.00000000
    -0.84447346    -0.18001100     0.03716265
    -0.89549295    -0.13160272     0.04507045
    -0.93528279    -0.08627821     0.05104842
    -0.95796351    -0.02608585     0.05469233
    -0.97317126     0.01916885     0.05621954
    -0.97478101     0.08921512     0.05567725
    -0.96735731     0.13416843     0.05613236
    -0.95518719     0.19695345     0.05387254
    -0.91320278     0.24049680     0.05228862
    -0.87273585     0.27969598     0.04560322
    -0.74545918     0.38606310     0.06268061
    -0.62509979     0.44476290     0.07146311
    -0.49994223     0.45479592     0.07625131
    -0.36491438     0.43802227     0.08411877
    -0.19607368     0.37105516     0.07778319
     0.00474712     0.18473256     0.04903344
     0.00000000     0.00000000     0.00000000
     0.00000000     0.00000000     0.00000000
    -0.77432462    -0.18874350     0.06405238
    -0.63787513    -0.29858995     0.09859165
    -0.49734524    -0.33827181     0.10359532
    -0.38473229    -0.33877032     0.09566327
    -0.27161431    -0.31416184     0.08182232
    -0.15739116    -0.25775384     0.06425305
    -0.02108649    -0.15258050     0.03893456
     0.00000000     0.00000000     0.00000000
     0.00000000     0.00000000     0.00000000
    -0.83611061    -0.18978223     0.08474647
    -0.88941588    -0.13971322     0.09838893
    -0.92632968    -0.08846241     0.10498889
    -0.94681698    -0.02522841     0.11086412
    -0.96104254     0.01905865     0.11226835
    -0.96459853     0.08936562     0.11286424
    -0.95786511     0.13035163     0.11012945
    -0.94191362     0.19681150     0.11155762
    -0.88814787     0.22937164     0.09985426
    -0.85997288     0.25453965     0.07746078
    -0.74535329     0.36427392     0.11459513
    -0.62281355     0.42134244     0.13313067
    -0.49043619     0.43000429     0.14435345
    -0.34856035     0.40692602     0.15166573
    -0.18397107     0.33421913     0.13397254
     0.00186539     0.16276518     0.07677500
     0.00000000     0.00000000     0.00000000
     0.00000000     0.00000000     0.00000000
    -0.77282248    -0.17212296     0.09655388
    -0.64505116    -0.28616503     0.14991950
    -0.50682216    -0.32731228     0.15831885
    -0.39314541    -0.33230724     0.14921625
    -0.27839820    -0.31120862     0.13146338
    -0.16217513    -0.25542022     0.10599474
    -0.02229307    -0.15433919     0.06488748
     0.00000000     0.00000000     0.00000000
     0.00000000     0.00000000     0.00000000
    -0.82225289    -0.16847318     0.12630649
    -0.86709638    -0.13433307     0.14945590
    -0.90325780    -0.09281062     0.16545295
    -0.92356954    -0.02716069     0.16772751
    -0.93403647     0.01749104     0.16695965
    -0.93801484     0.07909532     0.17363949
    -0.93146919     0.12368977     0.17644143
    -0.91340978     0.18141205     0.16590583
    -0.86814260     0.20538967     0.13320369
    -0.84876000     0.23019542     0.10657744
    -0.74309646     0.33500536     0.16585910
    -0.61766855     0.38454778     0.19878573
    -0.48214169     0.39080787     0.21527033
    -0.33574732     0.36506877     0.21774835
    -0.17712080     0.29488149     0.18439753
     0.00146793     0.14500931     0.10126133
     0.00000000     0.00000000     0.00000000
     0.00000000     0.00000000     0.00000000
    -0.77439683    -0.15267684     0.12689980
    -0.65251259    -0.26383350     0.19815120
    -0.51632328    -0.30635339     0.21357095
    -0.39985425    -0.31578975     0.20535125
    -0.28188426    -0.29787546     0.18406978
    -0.16434362    -0.24371796     0.14842694
    -0.02338493    -0.14981623     0.09134865
     0.00000000     0.00000000     0.00000000
     0.00000000     0.00000000     0.00000000
    -0.80458037    -0.13856541     0.15652827
    -0.82166205    -0.10988418     0.18107248
    -0.85257890    -0.08728588     0.21249506
    -0.87540939    -0.02840188     0.21709742
    -0.88179290     0.01126904     0.21952352
    -0.88719584     0.06487923     0.22462457
    -0.87247432     0.10664325     0.22032090
    -0.86577547     0.15348286     0.19784515
    -0.84116512     0.17627069     0.15662664
    -0.83968307     0.20634206     0.13353004
    -0.73726526     0.29987990     0.21609673
    -0.61046334     0.33624549     0.25991317
    -0.47506842     0.33706282     0.28055602
    -0.32957457     0.31255951     0.27670540
    -0.17506424     0.25346284     0.22876158
    -0.00053906     0.12872143     0.12605116
     0.00000000     0.00000000     0.00000000
     0.00000000     0.00000000     0.00000000
    -0.77788261    -0.13095884     0.15347490
    -0.65939549    -0.23161316     0.24259470
    -0.52495253    -0.27348174     0.26706399
    -0.40460621    -0.28602729     0.26155616
    -0.28436910    -0.27236234     0.23572546
    -0.16558546    -0.22297548     0.18896273
    -0.02476464    -0.14047040     0.11747272
     0.00000000     0.00000000     0.00000000
     0.00000000     0.00000000     0.00000000
    -0.78434808    -0.10827917     0.17871382
    -0.66558258    -0.19146299     0.28089591
    -0.53158699    -0.22909223     0.31518476
    -0.40954795    -0.24322821     0.31210347
    -0.28763948    -0.23551275     0.28187567
    -0.16851853    -0.19538509     0.22531189
    -0.02528082    -0.12619973     0.14310905
     0.00000000     0.00000000     0.00000000
     0.00000000     0.00000000     0.00000000
    -0.79133274    -0.08300512     0.20163825
    -0.67051371    -0.14641625     0.31307944
    -0.53631732    -0.17608014     0.35391548
    -0.41463003    -0.19070466     0.35218033
    -0.29321037    -0.19063108     0.31883840
    -0.17328963    -0.16316369     0.25605476
    -0.02631206    -0.10451373     0.16553686
     0.00000000     0.00000000     0.00000000
     0.00000000     0.00000000     0.00000000
    -0.80304702    -0.05693483     0.22588378
    -0.67310187    -0.09742816     0.33761714
    -0.53943448    -0.11867627     0.38165996
    -0.42046300    -0.13400027     0.37892624
    -0.30174652    -0.14171981     0.34542192
    -0.17998739    -0.12830522     0.28095368
    -0.03163754    -0.07886260     0.17780500
     0.00000000     0.00000000     0.00000000
     0.00000000     0.00000000     0.00000000
    -0.81588800    -0.02491695     0.24897501
    -0.67471953    -0.04676397     0.35412837
    -0.54234584    -0.06109354     0.39780434
    -0.42737431    -0.07770619     0.39340008
    -0.31194239    -0.09285104     0.36230795
    -0.18940790    -0.08983574     0.29991753
    -0.03548106    -0.05822164     0.19163620
     0.00000000     0.00000000     0.00000000
     0.00000000     0.00000000     0.00000000
    -0.83001518     0.00799140     0.26912153
    -0.67659745     0.00646998     0.36183897
    -0.54676721    -0.00627747     0.40383520
    -0.43489515    -0.02472870     0.39889912
    -0.32269832    -0.04444431     0.37200206
    -0.19810675    -0.04874766     0.31437432
    -0.03217476    -0.03230441     0.20714773
     0.00000000     0.00000000     0.00000000
     0.00000000     0.00000000     0.00000000
    -0.82880948     0.05132532     0.25790988
    -0.68361166     0.05773392     0.36089114
    -0.55316610     0.04659252     0.40212060
    -0.44324025     0.02592001     0.39889766
    -0.33106866     0.00467159     0.37736192
    -0.20287520    -0.00275789     0.32357167
    -0.02717891    -0.00049749     0.21339255
     0.00000000     0.00000000     0.00000000
     0.00000000     0.00000000     0.00000000
    -0.82633104     0.08788482     0.23705422
    -0.69343053     0.11011860     0.35166598
    -0.56310401     0.09959198     0.39378637
    -0.45104731     0.07819217     0.39540863
    -0.33597124     0.05807374     0.37870141
    -0.20102303     0.04791101     0.32450810
    -0.02724978     0.03337067     0.20798658
     0.00000000     0.00000000     0.00000000
     0.00000000     0.00000000     0.00000000
    -0.82674232     0.12421353     0.21490897
    -0.70542062     0.16124836     0.33203535
    -0.57478960     0.15657861     0.37820312
    -0.45887695     0.13626996     0.38654277
    -0.33526329     0.11846756     0.37349193
    -0.19531274     0.10147900     0.31548382
    -0.02124788     0.06296129     0.19335475
     0.00000000     0.00000000     0.00000000
     0.00000000     0.00000000     0.00000000
    -0.82795889     0.15415652     0.18817594
    -0.71770809     0.21235105     0.30230399
    -0.58799924     0.21698531     0.35176627
    -0.46468781     0.20253860     0.36751525
    -0.33210065     0.18396519     0.35639780
    -0.18581082     0.15697274     0.29754783
    -0.00536948     0.08519946     0.17237537
     0.00000000     0.00000000     0.00000000
     0.00000000     0.00000000     0.00000000
    -0.83342675     0.18202779     0.16180737
    -0.72861334     0.25867557     0.26222376
    -0.59953238     0.27898889     0.31241841
    -0.47020679     0.27181411     0.33244162
    -0.32791584     0.25084756     0.32427768
    -0.17957504     0.20808610     0.26710191
     0.00112509     0.10852692     0.14935512
     0.00000000     0.00000000     0.00000000
     0.00000000     0.00000000     0.00000000
    -0.69876706    -0.14168663     0.00000000
    -0.59190774    -0.15459603     0.00000000
    -0.44688863    -0.19037941     0.00000000
    -0.35831714    -0.20511526     0.00000000
    -0.28442950    -0.19382655     0.00000000
    -0.21034489    -0.16003261     0.00000000
    -0.12566552    -0.11200944     0.00000000
    -0.04967897    -0.03730792     0.00000000
     0.00000000     0.00000000     0.00000000
     0.00000000     0.00000000     0.00000000
    -0.69735367    -0.13620557     0.02594135
    -0.59053569    -0.15458397     0.03451798
    -0.45413626    -0.19294668     0.04967158
    -0.37500357    -0.21147000     0.05219582
    -0.30161412    -0.20090644     0.04656778
    -0.22296728    -0.16773357     0.03673155
    -0.13026223    -0.11180951     0.02143285
    -0.05008199    -0.02883504     0.00016898
     0.00000000     0.00000000     0.00000000
     0.00000000     0.00000000     0.00000000
    -0.69833751    -0.12971203     0.05195329
    -0.59893401    -0.15540023     0.06564671
    -0.46507379    -0.19307193     0.08543709
    -0.38626103    -0.21372836     0.08758533
    -0.31208793    -0.20277534     0.07680350
    -0.23274429    -0.16972797     0.06077931
    -0.13890269    -0.11370402     0.03824679
    -0.05516743    -0.02981500     0.00706970
     0.00000000     0.00000000     0.00000000
     0.00000000     0.00000000     0.00000000
    -0.70105109    -0.12136247     0.07599154
    -0.60662516    -0.14938247     0.09292407
    -0.47464469    -0.18404121     0.11532835
    -0.39354210    -0.20440628     0.11922188
    -0.31795197    -0.19542820     0.10563862
    -0.23700357    -0.16536146     0.08445927
    -0.14258175    -0.11299680     0.05572381
    -0.05785006    -0.03108906     0.01242058
     0.00000000     0.00000000     0.00000000
     0.00000000     0.00000000     0.00000000
    -0.70576571    -0.11002262     0.09891698
    -0.61390430    -0.13677856     0.11897118
    -0.48385081    -0.16690708     0.14388271
    -0.39909626    -0.18491911     0.15037198
    -0.32111413    -0.17960014     0.13515967
    -0.23818468    -0.15469586     0.11004093
    -0.14433458    -0.10919551     0.07496089
    -0.05953351    -0.03298200     0.02034239
     0.00000000     0.00000000     0.00000000
     0.00000000     0.00000000     0.00000000
    -0.71074635    -0.09466464     0.12035163
    -0.62070944    -0.11864036     0.14322091
    -0.49167451    -0.14277409     0.17121733
    -0.40361712    -0.15770083     0.18040525
    -0.32347730    -0.15630284     0.16505758
    -0.23892953    -0.13846020     0.13604276
    -0.14578328    -0.10166864     0.09490719
    -0.06179291    -0.03422461     0.02880115
     0.00000000     0.00000000     0.00000000
     0.00000000     0.00000000     0.00000000
    -0.71661592    -0.07654729     0.13997552
    -0.62560641    -0.09498271     0.16428846
    -0.49705332    -0.11329234     0.19687907
    -0.40770892    -0.12470201     0.20915072
    -0.32678596    -0.12727954     0.19387151
    -0.24148296    -0.11744772     0.16114325
    -0.14810399    -0.09017987     0.11332339
    -0.06493616    -0.03324992     0.03697974
     0.00000000     0.00000000     0.00000000
     0.00000000     0.00000000     0.00000000
    -0.72066722    -0.05476684     0.15601683
    -0.62925829    -0.06893537     0.18260464
    -0.49994314    -0.07939174     0.22037276
    -0.41266595    -0.08861197     0.23559758
    -0.33228290    -0.09515204     0.21993580
    -0.24781802    -0.09328044     0.18337985
    -0.15156949    -0.07610026     0.12852853
    -0.06889185    -0.03122909     0.04381067
     0.00000000     0.00000000     0.00000000
     0.00000000     0.00000000     0.00000000
    -0.72733292    -0.03285346     0.17084532
    -0.62993741    -0.03867879     0.19628217
    -0.50264379    -0.04443470     0.24098277
    -0.41897911    -0.05164169     0.25768762
    -0.34171511    -0.06301637     0.24138241
    -0.25665407    -0.06771238     0.20076173
    -0.15925735    -0.06055233     0.14002855
    -0.07048117    -0.03219704     0.05009882
     0.00000000     0.00000000     0.00000000
     0.00000000     0.00000000     0.00000000
    -0.73489185    -0.00722458     0.18322439
    -0.63060012    -0.00939518     0.20547634
    -0.50605130    -0.00843094     0.25661467
    -0.42795547    -0.01675513     0.27309179
    -0.35311721    -0.03192217     0.25634936
    -0.26832263    -0.04293782     0.21213782
    -0.16764429    -0.04323343     0.14752063
    -0.07909466    -0.03176637     0.05333374
     0.00000000     0.00000000     0.00000000
     0.00000000     0.00000000     0.00000000
    -0.74106836     0.01909165     0.19011764
    -0.63189328     0.02382671     0.20903025
    -0.51187627     0.02546241     0.26456747
    -0.43774086     0.01576756     0.28042536
    -0.36474507    -0.00242096     0.26343890
    -0.27957387    -0.01818478     0.21745078
    -0.17424154    -0.02521346     0.14957700
    -0.08567642    -0.02553582     0.05329905
     0.00000000     0.00000000     0.00000000
     0.00000000     0.00000000     0.00000000
    -0.74517436     0.04853518     0.18783810
    -0.63915626     0.05172459     0.20892523
    -0.51952186     0.05887338     0.26254356
    -0.44606713     0.04674671     0.27904115
    -0.37419509     0.02647568     0.26261447
    -0.28631912     0.00718963     0.21640393
    -0.17716951    -0.00586915     0.14736179
    -0.08604511    -0.01690041     0.05182156
     0.00000000     0.00000000     0.00000000
     0.00000000     0.00000000     0.00000000
    -0.74809605     0.07520672     0.17800490
    -0.64987641     0.08220857     0.20347143
    -0.52809560     0.08947957     0.25094585
    -0.45244273     0.07812951     0.26845388
    -0.37869622     0.05596706     0.25373783
    -0.28724495     0.03403208     0.20957067
    -0.17545258     0.01539574     0.14208068
    -0.08018542    -0.00774702     0.04932369
     0.00000000     0.00000000     0.00000000
     0.00000000     0.00000000     0.00000000
    -0.75385991     0.10198937     0.16484411
    -0.66040953     0.10939782     0.19026210
    -0.53817585     0.12033162     0.23103743
    -0.45700446     0.11036180     0.24813605
    -0.37882092     0.08746587     0.23658719
    -0.28215751     0.06239335     0.19714231
    -0.16966499     0.04026966     0.13419469
    -0.07601723     0.00246256     0.04391899
     0.00000000     0.00000000     0.00000000
     0.00000000     0.00000000     0.00000000
    -0.75964584     0.12557167     0.14653078
    -0.67280152     0.13795524     0.17157545
    -0.54880478     0.15055137     0.20370153
    -0.46134914     0.14409777     0.21899404
    -0.37589044     0.12117590     0.21078844
    -0.27486178     0.09280856     0.17886904
    -0.15910513     0.06686546     0.12512427
    -0.08653425     0.01849826     0.04099550
     0.00000000     0.00000000     0.00000000
     0.00000000     0.00000000     0.00000000
    -0.76817965     0.14859585     0.12637509
    -0.68316293     0.16349086     0.14660172
    -0.55970514     0.18123588     0.17139919
    -0.46581462     0.17876319     0.18230312
    -0.37353617     0.15677387     0.17779047
    -0.26876749     0.12514018     0.15401126
    -0.15189521     0.09024478     0.11231738
    -0.08302564     0.02831181     0.03802108
     0.00000000     0.00000000     0.00000000
     0.00000000     0.00000000     0.00000000
    -0.77444374     0.16831554     0.10369262
    -0.69184244     0.18673972     0.11905892
    -0.56858101     0.21145500     0.13522653
    -0.47012917     0.21403164     0.14077115
    -0.37527590     0.19351859     0.13893661
    -0.26663780     0.15659399     0.12332178
    -0.15009744     0.11081649     0.09271239
    -0.07560824     0.03036287     0.03132037
     0.00000000     0.00000000     0.00000000
     0.00000000     0.00000000     0.00000000
    -0.78142164     0.18678463     0.08071413
    -0.69612614     0.20667886     0.08904309
    -0.57458814     0.24157648     0.09717365
    -0.47622882     0.24898571     0.09720834
    -0.38207535     0.22966128     0.09703108
    -0.27164927     0.18547597     0.08831666
    -0.15213123     0.12751982     0.06844919
    -0.07457761     0.03232939     0.02347594
     0.00000000     0.00000000     0.00000000
     0.00000000     0.00000000     0.00000000
    -0.78678818     0.20241392     0.05531415
    -0.69718125     0.22351470     0.05793702
    -0.57890008     0.27021393     0.05880559
    -0.48493659     0.28184877     0.05453078
    -0.39482908     0.26288161     0.05542851
    -0.28289176     0.21107416     0.05126933
    -0.15936163     0.14077372     0.04078677
    -0.07628187     0.03332912     0.01398118
     0.00000000     0.00000000     0.00000000
     0.00000000     0.00000000     0.00000000