# vtk DataFile Version 3.0
Example VTK
ASCII
DATASET UNSTRUCTURED_GRID
POINTS   510 float
 -0.471421023626E+02 -0.154405160850E+02  0.000000000000E+00
 -0.392371678743E+02 -0.214300204035E+02  0.000000000000E+00
 -0.313545465517E+02 -0.251485923945E+02  0.000000000000E+00
 -0.235197877801E+02 -0.274490647892E+02  0.000000000000E+00
 -0.157007300611E+02 -0.286895658529E+02  0.000000000000E+00
 -0.788093116973E+01 -0.289885312685E+02  0.000000000000E+00
 -0.370852035811E-01 -0.283585776011E+02  0.000000000000E+00
  0.485806477600E+01 -0.266469127900E+02  0.000000000000E+00
  0.971612955200E+01 -0.247938255800E+02  0.000000000000E+00
 -0.496607704423E+02 -0.123514345441E+02  0.000000000000E+00
 -0.505759868153E+02 -0.925715244759E+01  0.000000000000E+00
 -0.511247951937E+02 -0.617037993014E+01  0.000000000000E+00
 -0.514289952946E+02 -0.305931584983E+01  0.000000000000E+00
 -0.515385132719E+02  0.433914789849E-01  0.000000000000E+00
 -0.514643558345E+02  0.317334998987E+01  0.000000000000E+00
 -0.511943293888E+02  0.627412308031E+01  0.000000000000E+00
 -0.507013752761E+02  0.939121840054E+01  0.000000000000E+00
 -0.498230548478E+02  0.124956051536E+02  0.000000000000E+00
 -0.473569146888E+02  0.156073294567E+02  0.000000000000E+00
 -0.394628489347E+02  0.216140092519E+02  0.000000000000E+00
 -0.316199439080E+02  0.253656684429E+02  0.000000000000E+00
 -0.237820626726E+02  0.276999257395E+02  0.000000000000E+00
 -0.159238520443E+02  0.289697179731E+02  0.000000000000E+00
 -0.801135025529E+01  0.292805553632E+02  0.000000000000E+00
  0.121629351525E-01  0.284816744635E+02  0.000000000000E+00
  0.371063367600E+01  0.266469127900E+02  0.000000000000E+00
  0.742126735300E+01  0.247938255800E+02  0.000000000000E+00
 -0.477542624897E+02 -0.152338937230E+02  0.240871731117E+01
 -0.392359231035E+02 -0.211640470169E+02  0.335010199760E+01
 -0.313543494797E+02 -0.248368517229E+02  0.392293762322E+01
 -0.235244309516E+02 -0.271120869307E+02  0.427814508853E+01
 -0.157079497430E+02 -0.283394932286E+02  0.446530584868E+01
 -0.788720932637E+01 -0.286403267133E+02  0.451452969710E+01
 -0.366440743232E-01 -0.280134603766E+02  0.442572180926E+01
  0.487577938100E+01 -0.263526544000E+02  0.396427664200E+01
  0.974471668600E+01 -0.245950934400E+02  0.257295191300E+01
 -0.496610430037E+02 -0.122865366746E+02  0.268274570820E+01
 -0.505229258749E+02 -0.925036138975E+01  0.289963707592E+01
 -0.510472402768E+02 -0.617928358421E+01  0.304697229767E+01
 -0.513398053618E+02 -0.306687261123E+01  0.311844784505E+01
 -0.514492866793E+02  0.443327434136E-01  0.311373283881E+01
 -0.513729527013E+02  0.318222206431E+01  0.312084039016E+01
 -0.511148833779E+02  0.628264482456E+01  0.305545736898E+01
 -0.506407817604E+02  0.937527022169E+01  0.291734793441E+01
 -0.498043663981E+02  0.124106627768E+02  0.271384117764E+01
 -0.479381781717E+02  0.153802749246E+02  0.243864963531E+01
 -0.394629274764E+02  0.213343439614E+02  0.338188140940E+01
 -0.316151101299E+02  0.250405323337E+02  0.396670209317E+01
 -0.237694314326E+02  0.273441030486E+02  0.433823188704E+01
 -0.159015230137E+02  0.285902084485E+02  0.455615887393E+01
 -0.797805714435E+01  0.288695489405E+02  0.461003862090E+01
  0.119409140970E-01  0.280878242269E+02  0.448787957573E+01
  0.373898642700E+01  0.263356989800E+02  0.400177498900E+01
  0.746269299800E+01  0.245641965300E+02  0.298701071100E+01
 -0.483050211520E+02 -0.146528032489E+02  0.476554196910E+01
 -0.392482707215E+02 -0.203938705911E+02  0.662926730552E+01
 -0.313687290496E+02 -0.239331360031E+02  0.776376670918E+01
 -0.235442994420E+02 -0.261326637137E+02  0.846264078179E+01
 -0.157259503318E+02 -0.273205954629E+02  0.883734101197E+01
 -0.790357994583E+01 -0.276086105426E+02  0.893286587799E+01
 -0.413287232896E-01 -0.270004008049E+02  0.875227215313E+01
  0.492848700300E+01 -0.254771248200E+02  0.783093963700E+01
  0.982977417800E+01 -0.240037904700E+02  0.508254921200E+01
 -0.496478545405E+02 -0.119316781625E+02  0.534036530596E+01
 -0.503814787516E+02 -0.902819522599E+01  0.578235400565E+01
 -0.508237403724E+02 -0.604119379456E+01  0.607690713800E+01
 -0.510726699385E+02 -0.300250154271E+01  0.623018938642E+01
 -0.511719499233E+02  0.442913927450E-01  0.622739587735E+01
 -0.511077578833E+02  0.311653977604E+01  0.623335276499E+01
 -0.508910442159E+02  0.613554633443E+01  0.608898361549E+01
 -0.504826727334E+02  0.913475917738E+01  0.581075835180E+01
 -0.497602912441E+02  0.120178366298E+02  0.537622847327E+01
 -0.484701945680E+02  0.147801079650E+02  0.479179559932E+01
 -0.394630078107E+02  0.205282027717E+02  0.666181532733E+01
 -0.316101749106E+02  0.240987286896E+02  0.782110716340E+01
 -0.237498287008E+02  0.263150158460E+02  0.855789631010E+01
 -0.158672436073E+02  0.275011112711E+02  0.897249436045E+01
 -0.795310396492E+01  0.277531126072E+02  0.906693184182E+01
  0.670782563378E-02  0.270161586369E+02  0.882483618808E+01
  0.382334654000E+01  0.254097206600E+02  0.790501299700E+01
  0.758594989700E+01  0.238809636100E+02  0.590047130500E+01
 -0.487445728360E+02 -0.137183654180E+02  0.700645007746E+01
 -0.392627377127E+02 -0.191189127755E+02  0.974920285313E+01
 -0.313872428022E+02 -0.224422300574E+02  0.114180538325E+02
 -0.235612363601E+02 -0.245116548468E+02  0.124498720032E+02
 -0.157388956929E+02 -0.256283261423E+02  0.130057591387E+02
 -0.791286392430E+01 -0.258920500679E+02  0.131467418137E+02
 -0.432831821518E-01 -0.253173414660E+02  0.128736763994E+02
  0.501488980600E+01 -0.240418825200E+02  0.115047789100E+02
  0.996920763000E+01 -0.230344765000E+02  0.746699728000E+01
 -0.495895594899E+02 -0.112339455272E+02  0.789374962989E+01
 -0.500975058720E+02 -0.856548085479E+01  0.859213372046E+01
 -0.504058554615E+02 -0.576983089602E+01  0.907492267047E+01
 -0.505789695544E+02 -0.287060797879E+01  0.932030055658E+01
 -0.506517000766E+02  0.387767637491E-01  0.933887157019E+01
 -0.506075003131E+02  0.296202071926E+01  0.932992280118E+01
 -0.504656096158E+02  0.583926714853E+01  0.909796422488E+01
 -0.501851134605E+02  0.865207344803E+01  0.862278031382E+01
 -0.496880081491E+02  0.113123047913E+02  0.791190488866E+01
 -0.488905352653E+02  0.138304980837E+02  0.702488020205E+01
 -0.394582171865E+02  0.192194926343E+02  0.978245953405E+01
 -0.316004316470E+02  0.225573941029E+02  0.114974578722E+02
 -0.237319912259E+02  0.246303628548E+02  0.125800868897E+02
 -0.158415073420E+02  0.257335082223E+02  0.131721692080E+02
 -0.793774078623E+01  0.259654735638E+02  0.132956813969E+02
  0.482345274363E-02  0.252957130331E+02  0.129416971767E+02
  0.396163679000E+01  0.238917785000E+02  0.116136033500E+02
  0.778800305500E+01  0.227609502700E+02  0.866864271200E+01
 -0.490313307429E+02 -0.124486190847E+02  0.907481293277E+01
 -0.392777850579E+02 -0.173676723279E+02  0.126305491560E+02
 -0.314056610836E+02 -0.203948373608E+02  0.147998429530E+02
 -0.235743292997E+02 -0.222835084444E+02  0.161430481964E+02
 -0.157449392415E+02 -0.232992644752E+02  0.168661052057E+02
 -0.791671146387E+01 -0.235315311586E+02  0.170432177969E+02
 -0.452077912152E-01 -0.230057871753E+02  0.166819893843E+02
  0.513286026600E+01 -0.220822679200E+02  0.148953323400E+02
  0.101595837300E+02 -0.217110192700E+02  0.966758309400E+01
 -0.494174334499E+02 -0.102550915586E+02  0.102901401109E+02
 -0.495951054573E+02 -0.786783075509E+01  0.112622244275E+02
 -0.496810401563E+02 -0.534490377319E+01  0.119765752519E+02
 -0.497258898465E+02 -0.267156734813E+01  0.123619220092E+02
 -0.497455657507E+02  0.251040577345E-01  0.124458920548E+02
 -0.497485158001E+02  0.273342796865E+01  0.123754212283E+02
 -0.497273417678E+02  0.538949983221E+01  0.119986536801E+02
 -0.496788399040E+02  0.794792103790E+01  0.112935826997E+02
 -0.495043913453E+02  0.103377178140E+02  0.103001903309E+02
 -0.491571936917E+02  0.125526423806E+02  0.908668655794E+01
 -0.394463583293E+02  0.174422045963E+02  0.126678055079E+02
 -0.315861269647E+02  0.204564848967E+02  0.148920496323E+02
 -0.237176452345E+02  0.223289612240E+02  0.162916838130E+02
 -0.158287574179E+02  0.233291418090E+02  0.170445181241E+02
 -0.793332000356E+01  0.235490734344E+02  0.171942208256E+02
  0.183842699204E-02  0.229623693545E+02  0.167451900514E+02
  0.415045201100E+01  0.218192492600E+02  0.150362282400E+02
  0.806387725500E+01  0.212317349700E+02  0.112233633700E+02
 -0.491354841368E+02 -0.108753756712E+02  0.109185630412E+02
 -0.392918468496E+02 -0.151821159550E+02  0.152030592452E+02
 -0.314219898150E+02 -0.178367482515E+02  0.178241853627E+02
 -0.235836886415E+02 -0.194958830354E+02  0.194489878292E+02
 -0.157485304137E+02 -0.203868491853E+02  0.203179971334E+02
 -0.791902272611E+01 -0.205854600598E+02  0.205231463821E+02
 -0.472991612005E-01 -0.201255785261E+02  0.200831405414E+02
  0.527949355900E+01 -0.196465332300E+02  0.179191132600E+02
  0.103962147800E+02 -0.200660066800E+02  0.116301209300E+02
 -0.490492881277E+02 -0.903874095796E+01  0.124979075256E+02
 -0.393040287365E+02 -0.126185243875E+02  0.174010925857E+02
 -0.314345276577E+02 -0.148300969945E+02  0.204121144532E+02
 -0.235924875017E+02 -0.162163248846E+02  0.222776078159E+02
 -0.157537109757E+02 -0.169632587728E+02  0.232699599153E+02
 -0.792406763579E+01 -0.171299022752E+02  0.234981957827E+02
 -0.480946686381E-01 -0.167466903177E+02  0.229942237453E+02
  0.545708352200E+01 -0.166965753800E+02  0.205768184200E+02
  0.107782649500E+02 -0.174100689700E+02  0.138160665800E+02
 -0.487798325967E+02 -0.698107302377E+01  0.137750307629E+02
 -0.393131842240E+02 -0.974340394491E+01  0.191719568496E+02
 -0.314432509260E+02 -0.114527459080E+02  0.224945494501E+02
 -0.236014636408E+02 -0.125299585254E+02  0.245521230394E+02
 -0.157638042167E+02 -0.131179490005E+02  0.256443482133E+02
 -0.793244173176E+01 -0.132530822342E+02  0.258942142111E+02
[...]
POINT_DATA       510
VECTORS displacement float 
    -1.54210236    -0.44051608     0.00000000
    -1.23716787    -0.61666986     0.00000000
    -0.95454655    -0.69273137     0.00000000
    -0.71978778    -0.67542330     0.00000000
    -0.50073006    -0.61176656     0.00000000
    -0.28093117    -0.48853127     0.00000000
    -0.03708520    -0.28077831     0.00000000
     0.00000000     0.00000000     0.00000000
     0.00000000     0.00000000     0.00000000
    -1.66077044    -0.35143454     0.00000000
    -1.77598682    -0.25715245     0.00000000
    -1.85873463    -0.17037993     0.00000000
    -1.90981170    -0.05931585     0.00000000
    -1.93851327     0.04339148     0.00000000
    -1.94517224     0.17334999     0.00000000
    -1.92826883     0.27412308     0.00000000
    -1.90137528     0.39121840     0.00000000
    -1.82305485     0.49560515     0.00000000
    -1.75691469     0.60732946     0.00000000
    -1.46284893     0.80065871     0.00000000
    -1.21994391     0.90980742     0.00000000
    -0.98206267     0.92628425     0.00000000
    -0.72385204     0.89191868     0.00000000
    -0.41135026     0.78055536     0.00000000
     0.01216294     0.40387517     0.00000000
     0.00000000     0.00000000     0.00000000
     0.00000000     0.00000000     0.00000000
    -1.53622850    -0.41856861     0.06220034
    -1.23592310    -0.60694336     0.09417664
    -0.95434948    -0.68208294     0.09719809
    -0.72443095    -0.66807340     0.08982481
    -0.50794974    -0.60737825     0.07297034
    -0.28720933    -0.49120900     0.05614744
    -0.03664407    -0.28134540     0.03338630
     0.00000000     0.00000000     0.00000000
     0.00000000     0.00000000     0.00000000
    -1.66932432    -0.36797710     0.07553742
    -1.77526094    -0.27198703     0.09149952
    -1.85297702    -0.17463070     0.10372410
    -1.90067099    -0.05876826     0.11034350
    -1.93010309     0.04433274     0.11373284
    -1.93381833     0.17411772     0.11273604
    -1.92062012     0.27799194     0.11220917
    -1.89311683     0.39689586     0.10921038
    -1.81264772     0.49210321     0.10663289
    -1.72014418     0.56494981     0.09213266
    -1.46292748     0.77724030     0.12595605
    -1.21511013     0.88576355     0.14096256
    -0.96943143     0.90008952     0.14991160
    -0.70152301     0.85809347     0.16382336
    -0.37805714     0.72043123     0.15165637
     0.01194091     0.35570925     0.09554406
     0.00000000     0.00000000     0.00000000
     0.00000000     0.00000000     0.00000000
    -1.52945065    -0.38695551     0.13028705
    -1.24827072    -0.59919793     0.19758828
    -0.96872905    -0.67423002     0.20649004
    -0.74429944    -0.66941751     0.18913056
    -0.52595033    -0.61702149     0.16082387
    -0.30357995    -0.50349983     0.12588154
    -0.04132872    -0.29682683     0.07575501
     0.00000000     0.00000000     0.00000000
     0.00000000     0.00000000     0.00000000
    -1.65052424    -0.38640100     0.17217196
    -1.76369933    -0.29032799     0.20074632
    -1.83492759    -0.17780901     0.21352235
    -1.87840668    -0.05925334     0.22553650
    -1.90588936     0.04429139     0.22739588
    -1.91349462     0.17329157     0.22869988
    -1.90223144     0.27216155     0.22559883
    -1.86489331     0.39689194     0.22915067
    -1.76296094     0.47255947     0.20803512
    -1.69462407     0.51426022     0.15654068
    -1.46300781     0.73353011     0.23013630
    -1.21017491     0.83982271     0.26383050
    -0.94982870     0.85176965     0.28438609
    -0.66724361     0.79753730     0.29597722
    -0.35310396     0.64800190     0.25994750
     0.00670783     0.31258467     0.14831904
     0.00000000     0.00000000     0.00000000
     0.00000000     0.00000000     0.00000000
    -1.52653885    -0.35326756     0.19659258
    -1.26273771    -0.57408166     0.30013944
    -0.98724280    -0.65189834     0.31532527
    -0.76123636    -0.65616561     0.29489312
    -0.53889569    -0.61082379     0.25870501
    -0.31286392    -0.49836413     0.20801257
    -0.04328318    -0.29983912     0.12662227
     0.00000000     0.00000000     0.00000000
     0.00000000     0.00000000     0.00000000
    -1.62232920    -0.34296879     0.25587951
    -1.71826468    -0.27888426     0.30553712
    -1.78807604    -0.18822321     0.33705544
    -1.83130462    -0.06247043     0.34192620
    -1.85170008     0.03877676     0.33887157
    -1.85983538     0.15388317     0.35154844
    -1.84783020     0.25765947     0.36009699
    -1.80587227     0.36547685     0.33618372
    -1.72077786     0.42132805     0.27403477
    -1.67250128     0.46540022     0.21502271
    -1.45821719     0.67466151     0.33339612
    -1.20043165     0.76706238     0.39472931
    -0.93199123     0.77487361     0.42510801
    -0.64150734     0.71600587     0.42511508
    -0.33774079     0.57178762     0.35695216
     0.00482345     0.27821068     0.19464305
     0.00000000     0.00000000     0.00000000
     0.00000000     0.00000000     0.00000000
    -1.52921771    -0.31336416     0.25803415
    -1.27778506    -0.52931803     0.39676866
    -1.00566108    -0.60963019     0.42504851
    -0.77432930    -0.62317747     0.40589658
    -0.54493924    -0.58384769     0.36238887
    -0.31671146    -0.47454682     0.29133811
    -0.04520779    -0.29037039     0.17827304
     0.00000000     0.00000000     0.00000000
     0.00000000     0.00000000     0.00000000
    -1.58576669    -0.28168970     0.31673825
    -1.62787517    -0.22996063     0.37124769
    -1.68370986    -0.17671042     0.43129809
    -1.73417117    -0.06435906     0.44336244
    -1.74556575     0.02510406     0.44589205
    -1.75679712     0.12621968     0.45686166
    -1.73001147     0.22130648     0.45337652
    -1.71160961     0.31005092     0.40260596
    -1.67272459     0.36431595     0.32678847
    -1.65508066     0.41738746     0.26990777
    -1.44635833     0.60385030     0.43402501
    -1.18612696     0.67127773     0.51725519
    -0.91764523     0.66863025     0.55453219
    -0.62875742     0.61372502     0.54080178
    -0.33332000     0.49208909     0.44234114
     0.00183843     0.24695256     0.24147371
     0.00000000     0.00000000     0.00000000
     0.00000000     0.00000000     0.00000000
    -1.53548414    -0.26877395     0.31196132
    -1.29184685    -0.46485465     0.48579794
    -1.02198981    -0.54384309     0.53128020
    -0.78368864    -0.56405959     0.51716438
    -0.54853041    -0.53284691     0.46399485
    -0.31902273    -0.43291680     0.37060312
    -0.04729916    -0.27157625     0.22913826
     0.00000000     0.00000000     0.00000000
     0.00000000     0.00000000     0.00000000
    -1.54717510    -0.22196217     0.36265261
    -1.30402874    -0.38474389     0.56273829
    -1.03452766    -0.45530255     0.62690728
    -0.79248750    -0.47917326     0.61727685
    -0.55371098    -0.45954243     0.55454313
    -0.32406764    -0.37802259     0.44121144
    -0.04809467    -0.24297398     0.27880696
     0.00000000     0.00000000     0.00000000
     0.00000000     0.00000000     0.00000000
    -1.56179861    -0.17121553     0.40993290
    -1.31318422    -0.29434053     0.62712573
    -1.04325093    -0.35001735     0.70421773
    -0.80146364    -0.37497965     0.69663380
    -0.56380422    -0.37089487     0.62684586
    -0.33244173    -0.31435299     0.50052827
    -0.05017063    -0.20044582     0.32202273
     0.00000000     0.00000000     0.00000000
     0.00000000     0.00000000     0.00000000
    -1.58416707    -0.11693212     0.45810611
    -1.31795423    -0.19671376     0.67666936
    -1.04873840    -0.23573717     0.75979934
    -0.81211106    -0.26274363     0.74951930
    -0.57958369    -0.27454329     0.67876622
    -0.34504136    -0.24610922     0.54824486
    -0.06017162    -0.15034417     0.34545830
     0.00000000     0.00000000     0.00000000
     0.00000000     0.00000000     0.00000000
    -1.60953647    -0.05380498     0.50541993
    -1.32067064    -0.09448631     0.70996451
    -1.05384455    -0.12134308     0.79235436
    -0.82485984    -0.15131196     0.77810160
    -0.59918833    -0.17865853     0.71150702
    -0.36266956    -0.17114973     0.58464498
    -0.06807488    -0.11061589     0.37128281
     0.00000000     0.00000000     0.00000000
     0.00000000     0.00000000     0.00000000
    -1.63713463     0.01602051     0.54479608
    -1.32426892     0.01152550     0.72608465
    -1.06188056    -0.01190622     0.80461402
    -0.83921925    -0.04681641     0.78898163
    -0.61968226    -0.08383938     0.73009476
    -0.37971733    -0.09131189     0.61233419
    -0.06032539    -0.06070114     0.40028747
     0.00000000     0.00000000     0.00000000
     0.00000000     0.00000000     0.00000000
    -1.63451846     0.10155924     0.52228967
    -1.33841921     0.11558852     0.72467931
    -1.07388816     0.09325543     0.80136808
    -0.85540767     0.05316706     0.78917217
    -0.63549443     0.01212354     0.74018588
    -0.38856595    -0.00206787     0.62964835
    -0.05165594     0.00068493     0.41153499
     0.00000000     0.00000000     0.00000000
     0.00000000     0.00000000     0.00000000
    -1.62971017     0.17821961     0.48005495
    -1.35827866     0.22044016     0.70663921
    -1.09282413     0.19926224     0.78486106
    -0.87087615     0.15622870     0.78258034
    -0.64396319     0.11653460     0.74249554
    -0.38496938     0.09605560     0.63058484
    -0.05016998     0.06567897     0.40004126
     0.00000000     0.00000000     0.00000000
     0.00000000     0.00000000     0.00000000
    -1.62985601     0.25048156     0.43473912
    -1.38217572     0.32430001     0.66731755
    -1.11607651     0.31273575     0.75391754
    -0.88562813     0.27131610     0.76520184
    -0.64209758     0.23441389     0.73192683
    -0.37251388     0.19967881     0.61212012
    -0.03997298     0.12204853     0.37095345
     0.00000000     0.00000000     0.00000000
     0.00000000     0.00000000     0.00000000
    -1.63323655     0.31247823     0.38114873
    -1.40650329     0.42691989     0.60731013
    -1.14205251     0.43371631     0.70128101
    -0.89678616     0.40223960     0.72735681
    -0.63506709     0.36263937     0.69792115
    -0.35360327     0.30659768     0.57661566
    -0.00775376     0.16397927     0.32963426
     0.00000000     0.00000000     0.00000000
     0.00000000     0.00000000     0.00000000
    -1.64260679     0.36793576     0.32665822
    -1.42867876     0.52091422     0.52703771
    -1.16536164     0.55712422     0.62222982
    -0.90718891     0.53960014     0.65783611
    -0.62695892     0.49317166     0.63426075
    -0.34085680     0.40517853     0.51712087
     0.00313543     0.20835410     0.28569874
     0.00000000     0.00000000     0.00000000
     0.00000000     0.00000000     0.00000000
    -1.37806025    -0.29348116     0.00000000
    -1.16191009    -0.31794565     0.00000000
    -0.87169721    -0.38807944     0.00000000
    -0.69316806    -0.41285239     0.00000000
    -0.54932769    -0.38980274     0.00000000
    -0.40557557    -0.32119205     0.00000000
    -0.24354335    -0.22499590     0.00000000
    -0.09615752    -0.07606481     0.00000000
     0.00000000     0.00000000     0.00000000
     0.00000000     0.00000000     0.00000000
    -1.37566691    -0.28249733     0.05308094
    -1.15898804    -0.31741218     0.07002551
    -0.88607713    -0.39253998     0.09956265
    -0.72617915    -0.42486625     0.10389703
    -0.58343829    -0.40307268     0.09181547
    -0.43030333    -0.33526810     0.07184929
    -0.25245830    -0.22395889     0.04198240
    -0.09605255    -0.05910099     0.00064418
     0.00000000     0.00000000     0.00000000
     0.00000000     0.00000000     0.00000000
    -1.37809148    -0.26940846     0.10649495
    -1.17526405    -0.31818609     0.13307970
    -0.90781194    -0.39212226     0.17178408
    -0.74853927    -0.42859267     0.17455915
    -0.60465419    -0.40579772     0.15216050
    -0.44940566    -0.33800244     0.11991731
    -0.26936170    -0.22692716     0.07583213
    -0.10575957    -0.06100206     0.01478137
     0.00000000     0.00000000     0.00000000
     0.00000000     0.00000000     0.00000000
    -1.38353671    -0.25213162     0.15596691
    -1.19045340    -0.30535591     0.18844395
    -0.92664749    -0.37342954     0.23233679
    -0.76343462    -0.40965035     0.23797422
    -0.61622547    -0.39039382     0.21006189
    -0.45768844    -0.32854919     0.16757319
    -0.27621789    -0.22476943     0.11125098
    -0.11100840    -0.06323110     0.02602906
     0.00000000     0.00000000     0.00000000
     0.00000000     0.00000000     0.00000000
    -1.39233312    -0.22812434     0.20279567
    -1.20512212    -0.27959781     0.24152258
    -0.94469436    -0.33846382     0.29019410
    -0.77487180    -0.37078530     0.30058287
    -0.62199567    -0.35823161     0.26932094
    -0.45982693    -0.30681568     0.21906982
    -0.27912058    -0.21642527     0.15007520
    -0.11445971    -0.06646668     0.04236585
     0.00000000     0.00000000     0.00000000
     0.00000000     0.00000000     0.00000000
    -1.40154505    -0.19613538     0.24616790
    -1.21869130    -0.24277286     0.29094650
    -0.95991462    -0.28960148     0.34546199
    -0.78391832    -0.31649870     0.36106345
    -0.62579548    -0.31124723     0.32922145
    -0.46088509    -0.27407962     0.27129815
    -0.28126574    -0.20063255     0.19015743
    -0.11910974    -0.06818746     0.05954326
     0.00000000     0.00000000     0.00000000
     0.00000000     0.00000000     0.00000000
    -1.41174440    -0.15809809     0.28537060
    -1.22865126    -0.19532004     0.33417793
    -0.97014476    -0.23013084     0.39715795
    -0.79160778    -0.25045020     0.41888088
    -0.63127725    -0.25311184     0.38678117
    -0.46532632    -0.23185955     0.32154303
    -0.28520663    -0.17723864     0.22696218
    -0.12521648    -0.06558167     0.07612389
     0.00000000     0.00000000     0.00000000
     0.00000000     0.00000000     0.00000000
    -1.42083920    -0.11454293     0.31888184
    -1.23515750    -0.14188493     0.37112712
    -0.97552280    -0.16215784     0.44454512
    -0.80019790    -0.17802565     0.47166850
    -0.64132929    -0.18875130     0.43877557
    -0.47662561    -0.18347276     0.36569426
    -0.29181606    -0.14880575     0.25732642
    -0.13230863    -0.06073965     0.08996770
     0.00000000     0.00000000     0.00000000
     0.00000000     0.00000000     0.00000000
    -1.43330058    -0.06872330     0.34858715
    -1.23685617    -0.08151972     0.39947635
    -0.97973311    -0.09146877     0.48574571
    -0.81170956    -0.10369951     0.51563721
    -0.65864675    -0.12449996     0.48133545
    -0.49344159    -0.13232684     0.40008811
    -0.30610851    -0.11764198     0.28014074
    -0.13532901    -0.06181986     0.10254230
     0.00000000     0.00000000     0.00000000
     0.00000000     0.00000000     0.00000000
    -1.44811405    -0.01728270     0.37370220
    -1.23783556    -0.02053232     0.41785913
    -0.98558300    -0.01909415     0.51697703
    -0.82808640    -0.03368538     0.54618867
    -0.68046696    -0.06225585     0.51105093
    -0.51550692    -0.08304402     0.42245196
    -0.32227991    -0.08287407     0.29491528
    -0.15111560    -0.06042284     0.10929223
     0.00000000     0.00000000     0.00000000
     0.00000000     0.00000000     0.00000000
    -1.46011290     0.03731610     0.38717029
    -1.24005124     0.04509682     0.42543083
    -0.99597621     0.05006353     0.53257340
    -0.84663564     0.03155173     0.56093793
    -0.70259214    -0.00347500     0.52500967
    -0.53727945    -0.03375689     0.43300389
    -0.33443372    -0.04682643     0.29886927
    -0.16471535    -0.04808664     0.10949073
     0.00000000     0.00000000     0.00000000
     0.00000000     0.00000000     0.00000000
    -1.46745866     0.09709788     0.38174234
    -1.25467032     0.10448323     0.42488601
    -1.01018134     0.11720886     0.52836128
    -0.86280368     0.09368801     0.55857866
    -0.72035524     0.05415004     0.52316582
    -0.55028272     0.01672854     0.43113131
    -0.33963441    -0.00823273     0.29440150
    -0.16490682    -0.03050945     0.10682748
     0.00000000     0.00000000     0.00000000
     0.00000000     0.00000000     0.00000000
    -1.47299568     0.15216549     0.36152392
    -1.27545086     0.16525768     0.41391171
    -1.02685386     0.17981697     0.50501391
    -0.87532395     0.15676515     0.53787876
    -0.72859186     0.11289556     0.50556520
    -0.55164109     0.07028843     0.41770108
    -0.33553644     0.03408938     0.28393172
    -0.15416533    -0.01210720     0.10188909
     0.00000000     0.00000000     0.00000000
     0.00000000     0.00000000     0.00000000
    -1.48385306     0.20620915     0.33411257
    -1.29672916     0.22238304     0.38696918
    -1.04686218     0.24217880     0.46530806
    -0.88440326     0.22190055     0.49770155
    -0.72840558     0.17583625     0.47175214
    -0.54114061     0.12695935     0.39315981
    -0.32380949     0.08328724     0.26813768
    -0.14552614     0.00819410     0.09138411
     0.00000000     0.00000000     0.00000000
     0.00000000     0.00000000     0.00000000
    -1.49625770     0.25501530     0.29718701
    -1.32042485     0.28013129     0.34845435
    -1.06864309     0.30412048     0.41072872
    -0.89309912     0.28999697     0.43975619
    -0.72268864     0.24353975     0.42094994
    -0.52634836     0.18773317     0.35695617
    -0.30337806     0.13573603     0.24970665
    -0.16642350     0.03954185     0.08553757
     0.00000000     0.00000000     0.00000000
     0.00000000     0.00000000     0.00000000
    -1.51154871     0.30060901     0.25519148
    -1.34176698     0.33333858     0.29821709
    -1.09057196     0.36624922     0.34557012
    -0.90222558     0.36034587     0.36677358
    -0.71814768     0.31489794     0.35534641
    -0.51417349     0.25236620     0.30778378
    -0.28971872     0.18197534     0.22414276
    -0.15983238     0.05895722     0.07909322
     0.00000000     0.00000000     0.00000000
     0.00000000     0.00000000     0.00000000
    -1.52436756     0.34101123     0.20954844
    -1.35922220     0.38084578     0.24227447
    -1.10823819     0.42743663     0.27276512
    -0.91171207     0.43164426     0.28366437
    -0.72125198     0.38831167     0.27788771
    -0.51085224     0.31503616     0.24706321
    -0.28608610     0.22295988     0.18576842
    -0.14711494     0.06353829     0.06558062
     0.00000000     0.00000000     0.00000000
     0.00000000     0.00000000     0.00000000
    -1.53747867     0.37792802     0.16297620
    -1.36860947     0.42201569     0.18164859
    -1.11991343     0.48768542     0.19597485
    -0.92439085     0.50196193     0.19622814
    -0.73489272     0.45996231     0.19413530
    -0.52156935     0.37243639     0.17778769
    -0.29066494     0.25620710     0.13816021
    -0.14582078     0.06797689     0.04996558
     0.00000000     0.00000000     0.00000000
     0.00000000     0.00000000     0.00000000
    -1.54815777     0.40954660     0.11175991
    -1.37123130     0.45638742     0.11853248
    -1.12802664     0.54471397     0.11863804
    -0.94221689     0.56740961     0.11039583
    -0.76057234     0.52540754     0.11108905
    -0.54518904     0.42302976     0.10438179
    -0.30541271     0.28259405     0.08356380
    -0.15029593     0.07040070     0.03128353
     0.00000000     0.00000000     0.00000000
     0.00000000     0.00000000     0.00000000