# vtk DataFile Version 3.0
Example VTK
ASCII
DATASET UNSTRUCTURED_GRID
POINTS   510 float
 -0.474845289599E+02 -0.155736868298E+02  0.000000000000E+00
 -0.394924677345E+02 -0.216009144980E+02  0.000000000000E+00
 -0.315420420967E+02 -0.253328628579E+02  0.000000000000E+00
 -0.236510300816E+02 -0.276180839666E+02  0.000000000000E+00
 -0.157906346536E+02 -0.288338696941E+02  0.000000000000E+00
 -0.792943798635E+01 -0.290959480961E+02  0.000000000000E+00
 -0.466348717164E-01 -0.284155768089E+02  0.000000000000E+00
  0.485806477600E+01 -0.266469127900E+02  0.000000000000E+00
  0.971612955200E+01 -0.247938255800E+02  0.000000000000E+00
 -0.500330092267E+02 -0.124582796359E+02  0.000000000000E+00
 -0.509870544743E+02 -0.933923215384E+01  0.000000000000E+00
 -0.515562511326E+02 -0.621726623953E+01  0.000000000000E+00
 -0.518792323725E+02 -0.308159325884E+01  0.000000000000E+00
 -0.519952794290E+02  0.667170340766E-01  0.000000000000E+00
 -0.519210678181E+02  0.322363417408E+01  0.000000000000E+00
 -0.516467453727E+02  0.637333339048E+01  0.000000000000E+00
 -0.511393068688E+02  0.951434863336E+01  0.000000000000E+00
 -0.502420588278E+02  0.126558705698E+02  0.000000000000E+00
 -0.477423163385E+02  0.157919769448E+02  0.000000000000E+00
 -0.397689604217E+02  0.218417474481E+02  0.000000000000E+00
 -0.318586916064E+02  0.256004331766E+02  0.000000000000E+00
 -0.239717981312E+02  0.279251145229E+02  0.000000000000E+00
 -0.160536466765E+02  0.291707794988E+02  0.000000000000E+00
 -0.808587574059E+01  0.294430989098E+02  0.000000000000E+00
  0.210862985913E-01  0.285603280605E+02  0.000000000000E+00
  0.371063367600E+01  0.266469127900E+02  0.000000000000E+00
  0.742126735300E+01  0.247938255800E+02  0.000000000000E+00
 -0.480934687862E+02 -0.153632180585E+02  0.242784572866E+01
 -0.394881154660E+02 -0.213338566685E+02  0.337813492047E+01
 -0.315381541686E+02 -0.250188869959E+02  0.395137200363E+01
 -0.236533040994E+02 -0.272792099045E+02  0.430315830530E+01
 -0.157960399974E+02 -0.284828412380E+02  0.448423425367E+01
 -0.793343788058E+01 -0.287486095398E+02  0.452782509564E+01
 -0.421146818120E-01 -0.280706710487E+02  0.443245134100E+01
  0.487577938100E+01 -0.263526544000E+02  0.396427664200E+01
  0.974471668600E+01 -0.245950934400E+02  0.257295191300E+01
 -0.500350247185E+02 -0.123988616785E+02  0.270629265431E+01
 -0.509335043534E+02 -0.933792384735E+01  0.292852187420E+01
 -0.514769444769E+02 -0.622897353650E+01  0.308004071874E+01
 -0.517869067367E+02 -0.309027164360E+01  0.315212279964E+01
 -0.519032993132E+02  0.689568829892E-01  0.314917449591E+01
 -0.518271822416E+02  0.323067534406E+01  0.315738485877E+01
 -0.515661641322E+02  0.638142051413E+01  0.308900234203E+01
 -0.510777830950E+02  0.949899434674E+01  0.295065348787E+01
 -0.502221834745E+02  0.125702200169E+02  0.274616587346E+01
 -0.483161490297E+02  0.155521872403E+02  0.246459801628E+01
 -0.397715786982E+02  0.215551536767E+02  0.341541218523E+01
 -0.318551409502E+02  0.252699297113E+02  0.399958538208E+01
 -0.239577085853E+02  0.275637670883E+02  0.437232895123E+01
 -0.160284728192E+02  0.287842847802E+02  0.459113510585E+01
 -0.804723966117E+01  0.290199011547E+02  0.464105939040E+01
  0.170432683659E-01  0.281570934338E+02  0.450612424752E+01
  0.373898642700E+01  0.263356989800E+02  0.400177498900E+01
  0.746269299800E+01  0.245641965300E+02  0.298701071100E+01
 -0.486430416383E+02 -0.147728718849E+02  0.480634328894E+01
 -0.395034153976E+02 -0.205601423766E+02  0.668697829276E+01
 -0.315564423279E+02 -0.241105989826E+02  0.782216859907E+01
 -0.236785649054E+02 -0.262973578766E+02  0.851310657724E+01
 -0.158194771350E+02 -0.274643162060E+02  0.887759687721E+01
 -0.795348376680E+01 -0.277186602774E+02  0.896214399163E+01
 -0.485957859752E-01 -0.270606667688E+02  0.876795833393E+01
  0.492848700300E+01 -0.254771248200E+02  0.783093963700E+01
  0.982977417800E+01 -0.240037904700E+02  0.508254921200E+01
 -0.500141542718E+02 -0.120459344493E+02  0.539367900140E+01
 -0.507893124104E+02 -0.912185978533E+01  0.584623697486E+01
 -0.512475369190E+02 -0.608929554385E+01  0.614445231245E+01
 -0.515127160835E+02 -0.302799672732E+01  0.630169732346E+01
 -0.516179597740E+02  0.697431596983E-01  0.629857148142E+01
 -0.515553781605E+02  0.316384129361E+01  0.630466210283E+01
 -0.513370983437E+02  0.623391565924E+01  0.616111063514E+01
 -0.509096284163E+02  0.925811026498E+01  0.588268339285E+01
 -0.501647700002E+02  0.121745448281E+02  0.544366925738E+01
 -0.488415816189E+02  0.149380342395E+02  0.483673547856E+01
 -0.397720259099E+02  0.207386766527E+02  0.672355117790E+01
 -0.318480260251E+02  0.243193023546E+02  0.788514136105E+01
 -0.239322083350E+02  0.265257623263E+02  0.862377093364E+01
 -0.159843100566E+02  0.276835464721E+02  0.903675878029E+01
 -0.801576281021E+01  0.278889491488E+02  0.911981970850E+01
  0.116712882636E-01  0.270763533227E+02  0.885295146501E+01
  0.382334654000E+01  0.254097206600E+02  0.790501299700E+01
  0.758594989700E+01  0.238809636100E+02  0.590047130500E+01
 -0.490814900511E+02 -0.138277458699E+02  0.706862216808E+01
 -0.395219342378E+02 -0.192770175126E+02  0.983604643189E+01
 -0.315789880832E+02 -0.226112835003E+02  0.115058477873E+02
 -0.237004006659E+02 -0.246706454599E+02  0.125270955914E+02
 -0.158352329539E+02 -0.257688379534E+02  0.130697489585E+02
 -0.796519550003E+01 -0.259999953959E+02  0.131948394122E+02
 -0.503248747932E-01 -0.253778018043E+02  0.129003169895E+02
  0.501488980600E+01 -0.240418825200E+02  0.115047789100E+02
  0.996920763000E+01 -0.230344765000E+02  0.746699728000E+01
 -0.499471800955E+02 -0.113343628128E+02  0.797242825149E+01
 -0.504907553971E+02 -0.865346309423E+01  0.869006064518E+01
 -0.508147973553E+02 -0.582145070411E+01  0.918121483597E+01
 -0.510036693110E+02 -0.289489954853E+01  0.942898904534E+01
 -0.510807577902E+02  0.602351675442E-01  0.944476339769E+01
 -0.510385350820E+02  0.300545144640E+01  0.943733104578E+01
 -0.508940390375E+02  0.593113802658E+01  0.920996725993E+01
 -0.505932555054E+02  0.876552073392E+01  0.872277835072E+01
 -0.500789271102E+02  0.114511262104E+02  0.799761936766E+01
 -0.492567651426E+02  0.139751045597E+02  0.708685838113E+01
 -0.397657205800E+02  0.194149428632E+02  0.987291603531E+01
 -0.318364973300E+02  0.227619360197E+02  0.115947277107E+02
 -0.239084631382E+02  0.248250319598E+02  0.126797836681E+02
 -0.159527386251E+02  0.258996761591E+02  0.132648110976E+02
 -0.799496079455E+01  0.260866876291E+02  0.133679510746E+02
  0.810230268843E-02  0.253497536992E+02  0.129780027562E+02
  0.396163679000E+01  0.238917785000E+02  0.116136033500E+02
  0.778800305500E+01  0.227609502700E+02  0.866864271200E+01
 -0.493678824141E+02 -0.125445633366E+02  0.915609463362E+01
 -0.395411352999E+02 -0.175121537052E+02  0.127449547881E+02
 -0.316014479194E+02 -0.205502282624E+02  0.149164046929E+02
 -0.237169316797E+02 -0.224322431224E+02  0.162479638225E+02
 -0.158422587836E+02 -0.234314066090E+02  0.169548748103E+02
 -0.796988502638E+01 -0.236328949442E+02  0.171103383402E+02
 -0.524529418415E-01 -0.230635616009E+02  0.167196568414E+02
  0.513286026600E+01 -0.220822679200E+02  0.148953323400E+02
  0.101595837300E+02 -0.217110192700E+02  0.966758309400E+01
 -0.497636305628E+02 -0.103359959467E+02  0.103872231491E+02
 -0.499625344227E+02 -0.794009528481E+01  0.113815110085E+02
 -0.500561549213E+02 -0.539138425331E+01  0.121089640460E+02
 -0.501210404435E+02 -0.269406052445E+01  0.125017790717E+02
 -0.501415620023E+02  0.412693126830E-01  0.125832852876E+02
 -0.501480284713E+02  0.277020243182E+01  0.125156468153E+02
 -0.501226641006E+02  0.546783822205E+01  0.121427087020E+02
 -0.500617968770E+02  0.804568590293E+01  0.114152151830E+02
 -0.498874565465E+02  0.104609415688E+02  0.104071727325E+02
 -0.495201498248E+02  0.126837783525E+02  0.916600625282E+01
 -0.397507258480E+02  0.176187724122E+02  0.127859017127E+02
 -0.318187225957E+02  0.206386506276E+02  0.150216392356E+02
 -0.238902445247E+02  0.224997692727E+02  0.164226581852E+02
 -0.159364540386E+02  0.234742592327E+02  0.171633540645E+02
 -0.798910487537E+01  0.236553217778E+02  0.172837940075E+02
  0.567684155476E-02  0.230109532299E+02  0.167898346088E+02
  0.415045201100E+01  0.218192492600E+02  0.150362282400E+02
  0.806387725500E+01  0.212317349700E+02  0.112233633700E+02
 -0.494726677474E+02 -0.109564088827E+02  0.110166543122E+02
 -0.395592094800E+02 -0.153075155029E+02  0.153422524092E+02
 -0.316208709568E+02 -0.179729179572E+02  0.179679117575E+02
 -0.237291283296E+02 -0.196283911459E+02  0.195811819519E+02
 -0.158455550979E+02 -0.205051934879E+02  0.204304442284E+02
 -0.797313018199E+01 -0.206761396684E+02  0.206079170264E+02
 -0.541456283334E-01 -0.201786964942E+02  0.201314453081E+02
  0.527949355900E+01 -0.196465332300E+02  0.179191132600E+02
  0.103962147800E+02 -0.200660066800E+02  0.116301209300E+02
 -0.493879248304E+02 -0.910373253094E+01  0.126107768283E+02
 -0.395741464946E+02 -0.127211012163E+02  0.175614096579E+02
 -0.316360162345E+02 -0.149418629169E+02  0.205797467291E+02
 -0.237391464029E+02 -0.163268105819E+02  0.224338192073E+02
 -0.158509526192E+02 -0.170628879177E+02  0.234029224831E+02
 -0.797855487413E+01 -0.172070759078E+02  0.235978620191E+02
 -0.551782201396E-01 -0.167929516081E+02  0.230525110110E+02
  0.545708352200E+01 -0.166965753800E+02  0.205768184200E+02
  0.107782649500E+02 -0.174100689700E+02  0.138160665800E+02
 -0.491232436818E+02 -0.703079180016E+01  0.139029499007E+02
 -0.395847627316E+02 -0.981999330820E+01  0.193490466573E+02
 -0.316462189666E+02 -0.115368786188E+02  0.226814068327E+02
 -0.237493444640E+02 -0.126140147274E+02  0.247268899424E+02
 -0.158625068783E+02 -0.131960995596E+02  0.257930881937E+02
 -0.798785094052E+01 -0.133151647909E+02  0.260057251729E+02
[...]
POINT_DATA       510
VECTORS displacement float 
    -1.88452896    -0.57368683     0.00000000
    -1.49246773    -0.78756396     0.00000000
    -1.14204210    -0.87700184     0.00000000
    -0.85103008    -0.84444248     0.00000000
    -0.59063465    -0.75607040     0.00000000
    -0.32943799    -0.59594810     0.00000000
    -0.04663487    -0.33777752     0.00000000
     0.00000000     0.00000000     0.00000000
     0.00000000     0.00000000     0.00000000
    -2.03300923    -0.45827964     0.00000000
    -2.18705447    -0.33923215     0.00000000
    -2.29019057    -0.21726624     0.00000000
    -2.36004878    -0.08159326     0.00000000
    -2.39527943     0.06671703     0.00000000
    -2.40188423     0.22363417     0.00000000
    -2.38068481     0.37333339     0.00000000
    -2.33930687     0.51434863     0.00000000
    -2.24205883     0.65587057     0.00000000
    -2.14231634     0.79197694     0.00000000
    -1.76896042     1.02839691     0.00000000
    -1.45869161     1.14457216     0.00000000
    -1.17179813     1.15147303     0.00000000
    -0.85364668     1.09298021     0.00000000
    -0.48587574     0.94309891     0.00000000
     0.02108630     0.48252877     0.00000000
     0.00000000     0.00000000     0.00000000
     0.00000000     0.00000000     0.00000000
    -1.87543480    -0.54789295     0.08132875
    -1.48811547    -0.77675301     0.12220956
    -1.13815417    -0.86411822     0.12563247
    -0.85330410    -0.83519637     0.11483802
    -0.59604000    -0.75072626     0.09189874
    -0.33343788    -0.59949183     0.06944284
    -0.04211468    -0.33855607     0.04011583
     0.00000000     0.00000000     0.00000000
     0.00000000     0.00000000     0.00000000
    -2.04330604    -0.48030211     0.09908437
    -2.18583942    -0.35954949     0.12038432
    -2.28268122    -0.22432065     0.13679252
    -2.34777237    -0.08216730     0.14401845
    -2.38411572     0.06895688     0.14917450
    -2.38804787     0.22257100     0.14928051
    -2.37190087     0.37676763     0.14575414
    -2.33011817     0.52061999     0.14251594
    -2.23046479     0.65166045     0.13895758
    -2.09811504     0.73686213     0.11808104
    -1.77157870     0.99805002     0.15948683
    -1.45514095     1.11516093     0.17384585
    -1.15770859     1.11975356     0.18400867
    -0.82847282     1.05216980     0.19879959
    -0.44723966     0.87078344     0.18267714
     0.01704327     0.42497845     0.11378874
     0.00000000     0.00000000     0.00000000
     0.00000000     0.00000000     0.00000000
    -1.86747114    -0.50702414     0.17108837
    -1.50341540    -0.76546972     0.25529927
    -1.15644233    -0.85169300     0.26489193
    -0.87856491    -0.83411168     0.23959636
    -0.61947714    -0.76074224     0.20107973
    -0.35348377    -0.61354957     0.15515965
    -0.04859579    -0.35709280     0.09144119
     0.00000000     0.00000000     0.00000000
     0.00000000     0.00000000     0.00000000
    -2.01682397    -0.50065729     0.22548565
    -2.17153299    -0.38399255     0.26462929
    -2.25872414    -0.22591075     0.28106752
    -2.31845282    -0.08474853     0.29704443
    -2.35189921     0.06974316     0.29857148
    -2.36111490     0.22059309     0.30000921
    -2.34828556     0.37053087     0.29772585
    -2.29184900     0.52024303     0.30107571
    -2.16743970     0.62926767     0.27547591
    -2.06601112     0.67218650     0.20148056
    -1.77202591     0.94400399     0.29187215
    -1.44802603     1.06039637     0.32786470
    -1.13220834     1.06251613     0.35026071
    -0.78431006     0.97997250     0.36024164
    -0.41576281     0.78383844     0.31283537
     0.01167129     0.37277935     0.17643432
     0.00000000     0.00000000     0.00000000
     0.00000000     0.00000000     0.00000000
    -1.86345606    -0.46264801     0.25876467
    -1.52193424    -0.73218639     0.38698302
    -1.17898808    -0.82095178     0.40311923
    -0.90040067    -0.81515622     0.37211671
    -0.63523295    -0.75133560     0.32269483
    -0.36519550    -0.60630946     0.25611017
    -0.05032487    -0.36029945     0.15326286
     0.00000000     0.00000000     0.00000000
     0.00000000     0.00000000     0.00000000
    -1.97994981    -0.44338607     0.33455813
    -2.11151421    -0.36686650     0.40346405
    -2.19701794    -0.23984302     0.44334760
    -2.25600438    -0.08676200     0.45061469
    -2.28075779     0.06023517     0.44476340
    -2.29087015     0.19731389     0.45895669
    -2.27625962     0.34953034     0.47210003
    -2.21401432     0.47892414     0.43618175
    -2.11169682     0.56014947     0.35974925
    -2.03873115     0.61000670     0.27700089
    -1.76572058     0.87011174     0.42385262
    -1.43649733     0.97160430     0.49199915
    -1.10846314     0.96954272     0.52480479
    -0.75273863     0.88217381     0.51775697
    -0.39496079     0.69300169     0.42922183
     0.00810230     0.33225135     0.23094863
     0.00000000     0.00000000     0.00000000
     0.00000000     0.00000000     0.00000000
    -1.86576938    -0.40930842     0.33931585
    -1.54113530    -0.67379941     0.51117429
    -1.20144792    -0.76502109     0.54161025
    -0.91693168    -0.77191215     0.51081220
    -0.64225878    -0.71598982     0.45115847
    -0.36988503    -0.57591060     0.35845865
    -0.05245294    -0.34814481     0.21594050
     0.00000000     0.00000000     0.00000000
     0.00000000     0.00000000     0.00000000
    -1.93196380    -0.36259409     0.41382129
    -1.99530413    -0.30222516     0.49053427
    -2.05882462    -0.22319090     0.56368689
    -2.12932176    -0.08685224     0.58321950
    -2.14156200     0.04126931     0.58328529
    -2.15630979     0.16299414     0.59708725
    -2.12533380     0.29964487     0.59743154
    -2.09456659     0.40781578     0.52423844
    -2.05578979     0.48753971     0.43377087
    -2.01803679     0.54852343     0.34922747
    -1.75072585     0.78041811     0.55212121
    -1.41872260     0.85344346     0.64684480
    -1.09024452     0.83943830     0.68550657
    -0.73645404     0.75884244     0.65963772
    -0.38910488     0.59833744     0.53191432
     0.00567684     0.29553644     0.28611827
     0.00000000     0.00000000     0.00000000
     0.00000000     0.00000000     0.00000000
    -1.87266775    -0.34980716     0.41005259
    -1.55920948    -0.59025419     0.62499110
    -1.22087096    -0.68001280     0.67500660
    -0.92912833    -0.69656770     0.64935850
    -0.64555510    -0.65119121     0.57644195
    -0.37313018    -0.52359641     0.45537377
    -0.05414563    -0.32469421     0.27744303
     0.00000000     0.00000000     0.00000000
     0.00000000     0.00000000     0.00000000
    -1.88581180    -0.28695375     0.47552191
    -1.57414649    -0.48732072     0.72305536
    -1.23601623    -0.56706848     0.79453956
    -0.93914640    -0.58965896     0.77348824
    -0.65095262    -0.55917158     0.68750569
    -0.37855487    -0.45519622     0.54087768
    -0.05517822    -0.28923527     0.33709422
     0.00000000     0.00000000     0.00000000
     0.00000000     0.00000000     0.00000000
    -1.90520969    -0.22093430     0.53785204
    -1.58476273    -0.37092990     0.80421554
    -1.24621897    -0.43415006     0.89107511
    -0.94934446    -0.45903585     0.87140070
    -0.66250688    -0.44904543     0.77558584
    -0.38785094    -0.37643555     0.61203923
    -0.05771109    -0.23763724     0.38832385
     0.00000000     0.00000000     0.00000000
     0.00000000     0.00000000     0.00000000
    -1.93201510    -0.14803247     0.59853995
    -1.59020711    -0.24664860     0.86678536
    -1.25251605    -0.28993387     0.96024992
    -0.96157622    -0.31899278     0.93620291
    -0.68082290    -0.32976415     0.83834909
    -0.40268510    -0.29283895     0.66878679
    -0.06885073    -0.17733164     0.41580054
     0.00000000     0.00000000     0.00000000
     0.00000000     0.00000000     0.00000000
    -1.96402310    -0.06812614     0.65982283
    -1.59299192    -0.11515009     0.90836396
    -1.25820863    -0.14597523     1.00058906
    -0.97639858    -0.17993693     0.97081995
    -0.70424280    -0.21148776     0.87731868
    -0.42327299    -0.20149157     0.71192249
    -0.07876699    -0.12981548     0.44596473
     0.00000000     0.00000000     0.00000000
     0.00000000     0.00000000     0.00000000
    -1.99868780     0.02643263     0.70849648
    -1.59722245     0.01927799     0.92869298
    -1.26745658    -0.00743403     1.01532693
    -0.99361029    -0.04970660     0.98347106
    -0.72851427    -0.09458745     0.89888011
    -0.44399170    -0.10446157     0.74457405
    -0.06838897    -0.06987483     0.47964425
     0.00000000     0.00000000     0.00000000
     0.00000000     0.00000000     0.00000000
    -1.99466238     0.13417508     0.67906834
    -1.61526660     0.15397022     0.92691179
    -1.28153154     0.12540274     1.01036959
    -1.01330178     0.07534115     0.98294026
    -0.74712983     0.02353530     0.90993929
    -0.45440687     0.00391985     0.76448492
    -0.05948544     0.00385807     0.49222788
     0.00000000     0.00000000     0.00000000
     0.00000000     0.00000000     0.00000000
    -1.98872107     0.23735626     0.62443784
    -1.64045662     0.28791891     0.90369074
    -1.30399927     0.26019067     0.98855229
    -1.03250588     0.20402589     0.97379750
    -0.75642957     0.15203916     0.91145175
    -0.45053845     0.12286199     0.76435270
    -0.05590188     0.08123318     0.47713239
     0.00000000     0.00000000     0.00000000
     0.00000000     0.00000000     0.00000000
    -1.98760496     0.33005566     0.56452093
    -1.67031477     0.42261319     0.85290287
    -1.33287590     0.40354519     0.94833987
    -1.04998718     0.34788841     0.95091027
    -0.75406169     0.29655171     0.89712350
    -0.43456141     0.24826143     0.74047951
    -0.04566998     0.14805119     0.44189852
     0.00000000     0.00000000     0.00000000
     0.00000000     0.00000000     0.00000000
    -1.99294979     0.41280165     0.49549803
    -1.70038965     0.55393478     0.77491568
    -1.36469453     0.55659628     0.88091571
    -1.06366809     0.51031944     0.90225972
    -0.74492411     0.45364276     0.85408817
    -0.41219272     0.37675317     0.69592780
    -0.00579080     0.19802854     0.39175586
     0.00000000     0.00000000     0.00000000
     0.00000000     0.00000000     0.00000000
    -2.00269563     0.48402679     0.42293741
    -1.72826582     0.67495241     0.67184444
    -1.39420589     0.71110137     0.77978772
    -1.07606866     0.68056933     0.81480066
    -0.73579615     0.61254914     0.77474438
    -0.39642415     0.49500052     0.62301546
     0.00482951     0.25050816     0.33898929
     0.00000000     0.00000000     0.00000000
     0.00000000     0.00000000     0.00000000
    -1.67173487    -0.38865045     0.00000000
    -1.39444497    -0.41653624     0.00000000
    -1.03339789    -0.50389510     0.00000000
    -0.81216638    -0.52840127     0.00000000
    -0.64171423    -0.49791493     0.00000000
    -0.46992286    -0.40797493     0.00000000
    -0.28136605    -0.28551010     0.00000000
    -0.10772278    -0.09855542     0.00000000
     0.00000000     0.00000000     0.00000000
     0.00000000     0.00000000     0.00000000
    -1.66988642    -0.37348541     0.07068767
    -1.39242144    -0.41299414     0.09204387
    -1.05408753    -0.50670639     0.12831057
    -0.85676980    -0.54047592     0.13135171
    -0.68780046    -0.51101179     0.11382083
    -0.50418586    -0.42236277     0.08779864
    -0.29638854    -0.28300953     0.05141190
    -0.11159980    -0.07894084     0.00160372
     0.00000000     0.00000000     0.00000000
     0.00000000     0.00000000     0.00000000
    -1.67324651    -0.35618517     0.14160607
    -1.41233371    -0.41258647     0.17450522
    -1.08116175    -0.50450060     0.22261027
    -0.88473908    -0.54308692     0.22237633
    -0.71466159    -0.51170742     0.19134777
    -0.52746473    -0.42316294     0.14914620
    -0.31677923    -0.28489723     0.09428385
    -0.12258268    -0.08040619     0.01995661
     0.00000000     0.00000000     0.00000000
     0.00000000     0.00000000     0.00000000
    -1.67996351    -0.33267972     0.20779687
    -1.43128261    -0.39455618     0.24712523
    -1.10416163    -0.47859493     0.30182374
    -0.90378177    -0.51744450     0.30436538
    -0.72898220    -0.49003637     0.26591398
    -0.53796099    -0.40934399     0.21016158
    -0.32490406    -0.28043367     0.13955649
    -0.12915255    -0.08226043     0.03486207
     0.00000000     0.00000000     0.00000000
     0.00000000     0.00000000     0.00000000
    -1.69010148    -0.29942136     0.26983654
    -1.45022527    -0.36029435     0.31693760
    -1.12628910    -0.43189930     0.37715016
    -0.91857353    -0.46725633     0.38510751
    -0.73565484    -0.44788181     0.34183014
    -0.54082187    -0.38082048     0.27589308
    -0.32789976    -0.26855070     0.18891693
    -0.13361667    -0.08520392     0.05604075
     0.00000000     0.00000000     0.00000000
     0.00000000     0.00000000     0.00000000
    -1.70098236    -0.25598953     0.32669735
    -1.46765424    -0.31171038     0.38163655
    -1.14518630    -0.36804445     0.44843260
    -0.93024820    -0.39791300     0.46263201
    -0.73954867    -0.38761185     0.41786544
    -0.54207183    -0.33895214     0.34210181
    -0.32974455    -0.24756720     0.23954528
    -0.13956917    -0.08613545     0.07799149
     0.00000000     0.00000000     0.00000000
     0.00000000     0.00000000     0.00000000
    -1.71224786    -0.20423087     0.37710405
    -1.48082039    -0.25038750     0.43812063
    -1.15797995    -0.29124795     0.51433447
    -0.93977364    -0.31390455     0.53598195
    -0.74556387    -0.31412140     0.49020478
    -0.54708124    -0.28549203     0.40519668
    -0.33403563    -0.21761781     0.28563864
    -0.14664645    -0.08180264     0.09901924
     0.00000000     0.00000000     0.00000000
     0.00000000     0.00000000     0.00000000
    -1.72521491    -0.14782047     0.42171813
    -1.48825001    -0.18006380     0.48517315
    -1.16488808    -0.20455877     0.57440158
    -0.94966101    -0.22208822     0.60193167
    -0.75752694    -0.23305703     0.55500175
    -0.55985048    -0.22475377     0.45983756
    -0.34200274    -0.18148648     0.32339744
    -0.15448654    -0.07469327     0.11640195
     0.00000000     0.00000000     0.00000000
     0.00000000     0.00000000     0.00000000
    -1.73980578    -0.08618075     0.45924068
    -1.49100676    -0.10321438     0.52201827
    -1.16939565    -0.11387458     0.62582203
    -0.96350622    -0.12788831     0.65629495
    -0.77782822    -0.15238776     0.60733171
    -0.58012249    -0.16064985     0.50191970
    -0.35848538    -0.14224981     0.35119483
    -0.15849610    -0.07451284     0.13194416
     0.00000000     0.00000000     0.00000000
     0.00000000     0.00000000     0.00000000
    -1.75815473    -0.01991737     0.49114918
    -1.49165138    -0.02235222     0.54462210
    -1.17613151    -0.02163875     0.66444695
    -0.98285602    -0.03915004     0.69343503
    -0.80424769    -0.07395429     0.64330728
    -0.60638260    -0.09905338     0.52873827
    -0.37795303    -0.09854042     0.36872623
    -0.17632921    -0.07148131     0.14023590
     0.00000000     0.00000000     0.00000000
     0.00000000     0.00000000     0.00000000
    -1.77282225     0.05279012     0.50724638
    -1.49378982     0.06044849     0.55382269
    -1.18798767     0.06811041     0.68279023
    -1.00527906     0.04395020     0.71085585
    -0.83074451     0.00018912     0.65940003
    -0.63278852    -0.03717782     0.54089844
    -0.39208559    -0.05328604     0.37289198
    -0.19333054    -0.05580671     0.14031218
     0.00000000     0.00000000     0.00000000
     0.00000000     0.00000000     0.00000000
    -1.78097263     0.13062252     0.49866162
    -1.51220529     0.14118466     0.55178287
    -1.20429808     0.15442433     0.67597763
    -1.02493412     0.12360222     0.70708596
    -0.85171143     0.07338729     0.65572324
    -0.64865607     0.02627616     0.53784184
    -0.39801183    -0.00488897     0.36682262
    -0.19316415    -0.03333587     0.13690144
     0.00000000     0.00000000     0.00000000
     0.00000000     0.00000000     0.00000000
    -1.78749326     0.20379593     0.47167603
    -1.53715297     0.21875132     0.53665243
    -1.22410886     0.23658195     0.64499127
    -1.03996321     0.20495118     0.68033359
    -0.86120194     0.14807049     0.63279071
    -0.65005784     0.09390851     0.52050472
    -0.39262377     0.04802019     0.35355791
    -0.18143102    -0.01006699     0.13089331
     0.00000000     0.00000000     0.00000000
     0.00000000     0.00000000     0.00000000
    -1.80019740     0.27421136     0.43470139
    -1.56410183     0.29548672     0.50095512
    -1.24831549     0.31740737     0.59353811
    -1.05078197     0.28919042     0.62919422
    -0.86046044     0.22815407     0.59008330
    -0.63697804     0.16538487     0.48955717
    -0.37842395     0.10910731     0.33382643
    -0.17086647     0.01512436     0.11808806
     0.00000000     0.00000000     0.00000000
     0.00000000     0.00000000     0.00000000
    -1.81696973     0.33956074     0.38666104
    -1.59259147     0.37030434     0.44962299
    -1.27583279     0.39837644     0.52354050
    -1.06127763     0.37662308     0.55569422
    -0.85350524     0.31408100     0.52669480
    -0.61864631     0.24169507     0.44431708
    -0.35424516     0.17388947     0.31074234
    -0.19636920     0.05261465     0.11018512
     0.00000000     0.00000000     0.00000000
     0.00000000     0.00000000     0.00000000
    -1.83444174     0.39811455     0.33034053
    -1.62032471     0.44083698     0.38467120
    -1.30353781     0.47816723     0.43970542
    -1.07277100     0.46651978     0.46378077
    -0.84820039     0.40384124     0.44471548
    -0.60371791     0.32228697     0.38341659
    -0.33851334     0.23101974     0.27883239
    -0.18848504     0.07630254     0.10144587
     0.00000000     0.00000000     0.00000000
     0.00000000     0.00000000     0.00000000
    -1.85069522     0.45091467     0.27077305
    -1.64266718     0.50246731     0.31217411
    -1.32585140     0.55609327     0.34671818
    -1.08594198     0.55666989     0.35928125
    -0.85183952     0.49513657     0.34821961
    -0.60091876     0.39971331     0.30854637
    -0.33392787     0.28162263     0.23183627
    -0.17534646     0.08242345     0.08455450
     0.00000000     0.00000000     0.00000000
     0.00000000     0.00000000     0.00000000
    -1.86618828     0.49786242     0.20988149
    -1.65571604     0.55619505     0.23427070
    -1.34062097     0.63146084     0.24895249
    -1.10299546     0.64458914     0.24952240
    -0.86916346     0.58294943     0.24410578
    -0.61512470     0.46987786     0.22327999
    -0.34005854     0.32217117     0.17364200
    -0.17465636     0.08798531     0.06513388
     0.00000000     0.00000000     0.00000000
     0.00000000     0.00000000     0.00000000
    -1.87945777     0.53827826     0.14376647
    -1.65979507     0.60037866     0.15310840
    -1.35104545     0.70223645     0.15094284
    -1.12672515     0.72510507     0.14187195
    -0.90165752     0.66208004     0.14105314
    -0.64570593     0.53073403     0.13293688
    -0.35850021     0.35381311     0.10656696
    -0.18143673     0.09087369     0.04226647
     0.00000000     0.00000000     0.00000000
     0.00000000     0.00000000     0.00000000