# vtk DataFile Version 3.0
Example VTK
ASCII
DATASET UNSTRUCTURED_GRID
POINTS   510 float
 -0.467632705876E+02 -0.153290600720E+02  0.000000000000E+00
 -0.389355843919E+02 -0.212771202778E+02  0.000000000000E+00
 -0.311227533261E+02 -0.249778758897E+02  0.000000000000E+00
 -0.233462411162E+02 -0.272840298815E+02  0.000000000000E+00
 -0.155799633300E+02 -0.285411949559E+02  0.000000000000E+00
 -0.781317723784E+01 -0.288708539549E+02  0.000000000000E+00
 -0.279818228951E-01 -0.282910570796E+02  0.000000000000E+00
  0.485806477600E+01 -0.266469127900E+02  0.000000000000E+00
  0.971612955200E+01 -0.247938255800E+02  0.000000000000E+00
 -0.492520706060E+02 -0.122622944349E+02  0.000000000000E+00
 -0.501378911630E+02 -0.919123039706E+01  0.000000000000E+00
 -0.506667305882E+02 -0.612763910355E+01  0.000000000000E+00
 -0.509576364603E+02 -0.304283555639E+01  0.000000000000E+00
 -0.510604324167E+02  0.311730418697E-01  0.000000000000E+00
 -0.509847616071E+02  0.313123119694E+01  0.000000000000E+00
 -0.507185914191E+02  0.620416012110E+01  0.000000000000E+00
 -0.502329582500E+02  0.929407084341E+01  0.000000000000E+00
 -0.493730333109E+02  0.123708611635E+02  0.000000000000E+00
 -0.469259832850E+02  0.154561431711E+02  0.000000000000E+00
 -0.391048542372E+02  0.214150305439E+02  0.000000000000E+00
 -0.313237283198E+02  0.251416881742E+02  0.000000000000E+00
 -0.235436550783E+02  0.274729532323E+02  0.000000000000E+00
 -0.157492738296E+02  0.287531276729E+02  0.000000000000E+00
 -0.791110082974E+01  0.290920734183E+02  0.000000000000E+00
  0.855966893601E-02  0.283841742848E+02  0.000000000000E+00
  0.371063367600E+01  0.266469127900E+02  0.000000000000E+00
  0.742126735300E+01  0.247938255800E+02  0.000000000000E+00
 -0.473766967116E+02 -0.151277747126E+02  0.239312711804E+01
 -0.389346110644E+02 -0.210134723414E+02  0.332677294813E+01
 -0.311225417906E+02 -0.246687531148E+02  0.389902905073E+01
 -0.233496191485E+02 -0.269488317947E+02  0.425624455479E+01
 -0.155852577669E+02 -0.281920573800E+02  0.444767287690E+01
 -0.781779081687E+01 -0.285217520156E+02  0.450102064747E+01
 -0.275385183928E-01 -0.279455912389E+02  0.441781808450E+01
  0.487577938100E+01 -0.263526544000E+02  0.396427664200E+01
  0.974471668600E+01 -0.245950934400E+02  0.257295191300E+01
 -0.492503498976E+02 -0.121932552408E+02  0.266378157099E+01
 -0.500850237470E+02 -0.918065504774E+01  0.287668274671E+01
 -0.505905522753E+02 -0.613543433329E+01  0.302092712010E+01
 -0.508707382074E+02 -0.305064741916E+01  0.309094475850E+01
 -0.509731820140E+02  0.317970530444E-01  0.308534823488E+01
 -0.508958687054E+02  0.314019363877E+01  0.309271395361E+01
 -0.506406797932E+02  0.621155170311E+01  0.302780258511E+01
 -0.501740614207E+02  0.927644382293E+01  0.289000377580E+01
 -0.493566535687E+02  0.122863762834E+02  0.268693564028E+01
 -0.475160744275E+02  0.152393669960E+02  0.241561042220E+01
 -0.391049347711E+02  0.211412082042E+02  0.335062730953E+01
 -0.313200912656E+02  0.248223314022E+02  0.393224373510E+01
 -0.235343743237E+02  0.271234250903E+02  0.430168001965E+01
 -0.157327274104E+02  0.283817637063E+02  0.451652263557E+01
 -0.788635636344E+01  0.286960424737E+02  0.457317465629E+01
  0.847045477260E-02  0.280026460867E+02  0.446456752270E+01
  0.373898642700E+01  0.263356989800E+02  0.400177498900E+01
  0.746269299800E+01  0.245641965300E+02  0.298701071100E+01
 -0.479288587358E+02 -0.145544781126E+02  0.473280574037E+01
 -0.389439512968E+02 -0.202452448374E+02  0.658045064791E+01
 -0.311332949606E+02 -0.237670067654E+02  0.771303465859E+01
 -0.233645351285E+02 -0.259691058495E+02  0.841656712994E+01
 -0.155986458412E+02 -0.271707529795E+02  0.879837507873E+01
 -0.783021812960E+01 -0.274869951321E+02  0.890243525105E+01
 -0.310577741877E-01 -0.269288120696E+02  0.873405013101E+01
  0.492848700300E+01 -0.254771248200E+02  0.783093963700E+01
  0.982977417800E+01 -0.240037904700E+02  0.508254921200E+01
 -0.492424129673E+02 -0.118341044492E+02  0.529713084369E+01
 -0.499463714284E+02 -0.895334240273E+01  0.573169593028E+01
 -0.503715708764E+02 -0.599682786259E+01  0.602321262490E+01
 -0.506091080099E+02 -0.298556012281E+01  0.617346141613E+01
 -0.507018429764E+02  0.317131079995E-01  0.617051302165E+01
 -0.506356432167E+02  0.307499014861E+01  0.617615340358E+01
 -0.504211830797E+02  0.606540350287E+01  0.603194204381E+01
 -0.500233755577E+02  0.903579106525E+01  0.575259969101E+01
 -0.493247470975E+02  0.118976671061E+02  0.532272838389E+01
 -0.480542986136E+02  0.146517595063E+02  0.475266841516E+01
 -0.391049435490E+02  0.203459274951E+02  0.660473368523E+01
 -0.313165094965E+02  0.238917835846E+02  0.775636113301E+01
 -0.235198104775E+02  0.261061000618E+02  0.848840820388E+01
 -0.157074801713E+02  0.273073851593E+02  0.890078624684E+01
 -0.786792447847E+01  0.275974015299E+02  0.900420200375E+01
  0.441041826272E-02  0.269415743405E+02  0.878909341072E+01
  0.382334654000E+01  0.254097206600E+02  0.790501299700E+01
  0.758594989700E+01  0.238809636100E+02  0.590047130500E+01
 -0.483690583546E+02 -0.136284548724E+02  0.695697838349E+01
 -0.389548008370E+02 -0.189765066552E+02  0.967511045115E+01
 -0.311473559956E+02 -0.222816607571E+02  0.113406159809E+02
 -0.233772245828E+02 -0.243513820208E+02  0.123780066600E+02
 -0.156085247557E+02 -0.254800256162E+02  0.129429376870E+02
 -0.783724510219E+01 -0.257717881833E+02  0.130963038491E+02
 -0.326440405085E-01 -0.252451247792E+02  0.128430750404E+02
  0.501488980600E+01 -0.240418825200E+02  0.115047789100E+02
  0.996920763000E+01 -0.230344765000E+02  0.746699728000E+01
 -0.491911382249E+02 -0.111473014711E+02  0.782964062158E+01
 -0.496738805106E+02 -0.849362794313E+01  0.851487477077E+01
 -0.499654941773E+02 -0.572233236097E+01  0.898993969191E+01
 -0.501271837346E+02 -0.285298515597E+01  0.923408145816E+01
 -0.501949976231E+02  0.282311410146E-01  0.925386187032E+01
 -0.501487274682E+02  0.292500937048E+01  0.924192757342E+01
 -0.500096382814E+02  0.577302554933E+01  0.900709947483E+01
 -0.497408580797E+02  0.856099015029E+01  0.853852028347E+01
 -0.492633508821E+02  0.112055500343E+02  0.784223241545E+01
 -0.484800030653E+02  0.137142149699E+02  0.697121949934E+01
 -0.391014337516E+02  0.190518466866E+02  0.969969310890E+01
 -0.313090913402E+02  0.223683219603E+02  0.114004081865E+02
 -0.235067955946E+02  0.244402244154E+02  0.124759660508E+02
 -0.156882597209E+02  0.255595582974E+02  0.130691580359E+02
 -0.785689311161E+01  0.258281690151E+02  0.132098872508E+02
  0.327166153554E-02  0.252294452665E+02  0.128951134880E+02
  0.396163679000E+01  0.238917785000E+02  0.116136033500E+02
  0.778800305500E+01  0.227609502700E+02  0.866864271200E+01
 -0.486552368596E+02 -0.123688243752E+02  0.900994561299E+01
 -0.389660928075E+02 -0.172363075747E+02  0.125325506764E+02
 -0.311613698709E+02 -0.202447469943E+02  0.146955106001E+02
 -0.233871501472E+02 -0.221313176202E+02  0.160440740943E+02
 -0.156132930029E+02 -0.231576675239E+02  0.167780213610E+02
 -0.784024814325E+01 -0.234172446442E+02  0.169725448481E+02
 -0.341499253658E-01 -0.229360152565E+02  0.166388850189E+02
  0.513286026600E+01 -0.220822679200E+02  0.148953323400E+02
  0.101595837300E+02 -0.217110192700E+02  0.966758309400E+01
 -0.490283205812E+02 -0.101839794025E+02  0.102108615338E+02
 -0.491936090420E+02 -0.780806648592E+01  0.111680711309E+02
 -0.492672082439E+02 -0.530035345280E+01  0.118682237627E+02
 -0.492983439043E+02 -0.265356703378E+01  0.122499218561E+02
 -0.493154675529E+02  0.183515304245E-01  0.123338858091E+02
 -0.493155653281E+02  0.270311919441E+01  0.122605318700E+02
 -0.493004007052E+02  0.533283661570E+01  0.118833928653E+02
 -0.492575601197E+02  0.787049033625E+01  0.111923076938E+02
 -0.490901149242E+02  0.102447464478E+02  0.102160314547E+02
 -0.487507755220E+02  0.124482694014E+02  0.901920637714E+01
 -0.390925772924E+02  0.172921806359E+02  0.125601363060E+02
 -0.312983789806E+02  0.202909582711E+02  0.147646069977E+02
 -0.234961147559E+02  0.221649182698E+02  0.161557373763E+02
 -0.156788579837E+02  0.231799605440E+02  0.169133926471E+02
 -0.785370490015E+01  0.234307971678E+02  0.170881249159E+02
  0.774315094512E-03  0.229035959271E+02  0.166877181627E+02
  0.415045201100E+01  0.218192492600E+02  0.150362282400E+02
  0.806387725500E+01  0.212317349700E+02  0.112233633700E+02
 -0.487579856604E+02 -0.108068882883E+02  0.108401395945E+02
 -0.389765921781E+02 -0.150666536520E+02  0.150830312448E+02
 -0.311738871262E+02 -0.177028748107E+02  0.176938052560E+02
 -0.233942123901E+02 -0.193581502729E+02  0.193227904997E+02
 -0.156163320913E+02 -0.202578229844E+02  0.202052141671E+02
 -0.784200894825E+01 -0.204814779378E+02  0.204333167584E+02
 -0.358844977673E-01 -0.200604755179E+02  0.200277718734E+02
  0.527949355900E+01 -0.196465332300E+02  0.179191132600E+02
  0.103962147800E+02 -0.200660066800E+02  0.116301209300E+02
 -0.486692202927E+02 -0.898220336189E+01  0.124068858405E+02
 -0.389857864925E+02 -0.125227803031E+02  0.172619744174E+02
 -0.311834709760E+02 -0.147179926438E+02  0.202582477091E+02
 -0.234010835819E+02 -0.160993518782E+02  0.221268905318E+02
 -0.156205444663E+02 -0.168522186568E+02  0.231352061454E+02
 -0.784597513389E+01 -0.170393892728E+02  0.233914265067E+02
 -0.365205016243E-01 -0.166886587490E+02  0.229269336314E+02
  0.545708352200E+01 -0.166965753800E+02  0.205768184200E+02
  0.107782649500E+02 -0.174100689700E+02  0.138160665800E+02
 -0.483959888503E+02 -0.693714954472E+01  0.136719496472E+02
 -0.389928090400E+02 -0.967004693198E+01  0.190169245781E+02
 -0.311901719349E+02 -0.113664291744E+02  0.223215859262E+02
 -0.234080816528E+02 -0.124384780971E+02  0.243819309523E+02
 -0.156283597050E+02 -0.130285136337E+02  0.254920823793E+02
 -0.785250963917E+01 -0.131780771120E+02  0.257732971968E+02
[...]
POINT_DATA       510
VECTORS displacement float 
    -1.16327059    -0.32906007     0.00000000
    -0.93558439    -0.46376974     0.00000000
    -0.72275333    -0.52201487     0.00000000
    -0.54624112    -0.51038839     0.00000000
    -0.37996333    -0.46339567     0.00000000
    -0.21317724    -0.37085395     0.00000000
    -0.02798182    -0.21325779     0.00000000
     0.00000000     0.00000000     0.00000000
     0.00000000     0.00000000     0.00000000
    -1.25207061    -0.26229443     0.00000000
    -1.33789116    -0.19123040     0.00000000
    -1.40067003    -0.12763910     0.00000000
    -1.43845287    -0.04283556     0.00000000
    -1.46043242     0.03117304     0.00000000
    -1.46557802     0.13123120     0.00000000
    -1.45253086     0.20416012     0.00000000
    -1.43295825     0.29407084     0.00000000
    -1.37303331     0.37086116     0.00000000
    -1.32598328     0.45614317     0.00000000
    -1.10485424     0.60168000     0.00000000
    -0.92372832     0.68582715     0.00000000
    -0.74365508     0.69931174     0.00000000
    -0.54927383     0.67532838     0.00000000
    -0.31110083     0.59207342     0.00000000
     0.00855967     0.30637499     0.00000000
     0.00000000     0.00000000     0.00000000
     0.00000000     0.00000000     0.00000000
    -1.15866272    -0.31244960     0.04661014
    -0.93461106    -0.45636868     0.07084759
    -0.72254179    -0.51398433     0.07328952
    -0.54961915    -0.50481826     0.06792427
    -0.38525777    -0.45994240     0.05533737
    -0.21779082    -0.37263431     0.04263839
    -0.02753852    -0.21347626     0.02548257
     0.00000000     0.00000000     0.00000000
     0.00000000     0.00000000     0.00000000
    -1.25863122    -0.27469567     0.05657328
    -1.33735882    -0.20228069     0.06854519
    -1.39628902    -0.13078144     0.07767892
    -1.43160384    -0.04254307     0.08284041
    -1.45399842     0.03179705     0.08534823
    -1.45673434     0.13208929     0.08460961
    -1.44641653     0.20689881     0.08455438
    -1.42639649     0.29806946     0.08186622
    -1.36493489     0.36781671     0.07972735
    -1.29804044     0.42404189     0.06909345
    -1.10493477     0.58410454     0.09470195
    -0.92009127     0.66756262     0.10650420
    -0.73437432     0.67941156     0.11335974
    -0.53272741     0.64964873     0.12418712
    -0.28635636     0.54692476     0.11479240
     0.00847045     0.27053111     0.07223201
     0.00000000     0.00000000     0.00000000
     0.00000000     0.00000000     0.00000000
    -1.15328824    -0.28863037     0.09755082
    -0.94395130    -0.45057218     0.14877162
    -0.73329496    -0.50810079     0.15575799
    -0.56453513    -0.50585965     0.14305691
    -0.39864584    -0.46717901     0.12185793
    -0.23021813    -0.38188442     0.09545091
    -0.03105777    -0.22523810     0.05753299
     0.00000000     0.00000000     0.00000000
     0.00000000     0.00000000     0.00000000
    -1.24508267    -0.28882729     0.12893749
    -1.32859201    -0.21547517     0.15008825
    -1.38275810    -0.13344307     0.15982784
    -1.41484475    -0.04231192     0.16880853
    -1.43578242     0.03171311     0.17051302
    -1.44137996     0.13174195     0.17150051
    -1.43237030     0.20201871     0.16855725
    -1.40559614     0.29792383     0.17099201
    -1.32741680     0.35238995     0.15453503
    -1.27872811     0.38591177     0.11741350
    -1.10494355     0.55125484     0.17305466
    -0.91650950     0.63287760     0.19908447
    -0.71981048     0.64285386     0.21489798
    -0.50748017     0.60381119     0.22426910
    -0.26792448     0.49229082     0.19721766
     0.00441042     0.23800037     0.11257627
     0.00000000     0.00000000     0.00000000
     0.00000000     0.00000000     0.00000000
    -1.15102436    -0.26335701     0.14712089
    -0.95480084    -0.43167554     0.22604704
    -0.74735600    -0.49132904     0.23788742
    -0.57722458    -0.49589278     0.22302778
    -0.40852476    -0.46252327     0.19588356
    -0.23724510    -0.37810224     0.15757461
    -0.03264404    -0.22762243     0.09602091
     0.00000000     0.00000000     0.00000000
     0.00000000     0.00000000     0.00000000
    -1.22390793    -0.25632473     0.19177050
    -1.29463932    -0.20703135     0.22827817
    -1.34771476    -0.14072468     0.25207246
    -1.37951880    -0.04484760     0.25570710
    -1.39499762     0.02823114     0.25386187
    -1.40106254     0.11687182     0.26355322
    -1.39185886     0.19141787     0.26923224
    -1.36161689     0.27439355     0.25192369
    -1.29612059     0.31457329     0.20436229
    -1.26196908     0.34911711     0.16136200
    -1.10143375     0.50701557     0.25062970
    -0.90909134     0.57799024     0.29767963
    -0.70679559     0.58473518     0.32098717
    -0.48825972     0.54205595     0.32210391
    -0.25689311     0.43448308     0.27115801
     0.00327166     0.21194292     0.14805936
     0.00000000     0.00000000     0.00000000
     0.00000000     0.00000000     0.00000000
    -1.15312383    -0.23356946     0.19316683
    -0.96609281    -0.39795327     0.29877018
    -0.76136987    -0.45953982     0.32071616
    -0.58715015    -0.47098665     0.30692247
    -0.41329300    -0.44225073     0.27430502
    -0.24024814    -0.36026030     0.22066516
    -0.03414993    -0.22059847     0.13516868
     0.00000000     0.00000000     0.00000000
     0.00000000     0.00000000     0.00000000
    -1.19665382    -0.21057754     0.23745967
    -1.22637875    -0.17019636     0.27709439
    -1.26987794    -0.13216010     0.32294660
    -1.30662522    -0.04635874     0.33136229
    -1.31546755     0.01835153     0.33388581
    -1.32384665     0.09591091     0.34197230
    -1.30307041     0.16464327     0.33811571
    -1.29032983     0.23262021     0.30133095
    -1.25844816     0.27134459     0.24262959
    -1.24866249     0.31301448     0.20242759
    -1.09257729     0.45382634     0.32635581
    -0.89837898     0.50575110     0.38981256
    -0.69611476     0.50458730     0.41858576
    -0.47885798     0.46454375     0.40967631
    -0.25370490     0.37381283     0.33624523
     0.00077432     0.18817914     0.18400182
     0.00000000     0.00000000     0.00000000
     0.00000000     0.00000000     0.00000000
    -1.15798566    -0.20028657     0.23353787
    -0.97659218    -0.34939234     0.36576993
    -0.77388713    -0.40996965     0.40090010
    -0.59421239    -0.42632682     0.39096705
    -0.41633209    -0.40382070     0.35121189
    -0.24200895    -0.32893468     0.28077350
    -0.03588450    -0.20647324     0.17376959
     0.00000000     0.00000000     0.00000000
     0.00000000     0.00000000     0.00000000
    -1.16710726    -0.16542458     0.27163092
    -0.98578649    -0.28899980     0.42362012
    -0.78347098    -0.34319820     0.47304054
    -0.60108358    -0.36220026     0.46655956
    -0.42054447    -0.34850232     0.41978936
    -0.24597513    -0.28750958     0.33444217
    -0.03652050    -0.18494241     0.21151684
     0.00000000     0.00000000     0.00000000
     0.00000000     0.00000000     0.00000000
    -1.17795486    -0.12729205     0.30685179
    -0.99280904    -0.22098352     0.47209346
    -0.79017193    -0.26370061     0.53125421
    -0.60808165    -0.28349922     0.52644171
    -0.42835970    -0.28145950     0.47458003
    -0.25250964    -0.23934787     0.37961126
    -0.03804688    -0.15271650     0.24439701
     0.00000000     0.00000000     0.00000000
     0.00000000     0.00000000     0.00000000
    -1.19506801    -0.08702438     0.34322336
    -0.99645062    -0.14736170     0.50926821
    -0.79439838    -0.17748478     0.57300429
    -0.61628203    -0.19868001     0.56632619
    -0.44049092    -0.20852455     0.51388814
    -0.26212462    -0.18759451     0.41600620
    -0.04564778    -0.11470297     0.26223566
     0.00000000     0.00000000     0.00000000
     0.00000000     0.00000000     0.00000000
    -1.21430693    -0.03929068     0.37858561
    -0.99854179    -0.07060719     0.53424184
    -0.79832339    -0.09113653     0.59735104
    -0.62605328    -0.11448807     0.58782061
    -0.45536543    -0.13586379     0.53868149
    -0.27562670    -0.13068210     0.44369714
    -0.05151626    -0.08444701     0.28206698
     0.00000000     0.00000000     0.00000000
     0.00000000     0.00000000     0.00000000
    -1.23526732     0.01219963     0.40848857
    -1.00121023     0.00934291     0.54617244
    -0.80446060    -0.00869740     0.60641851
    -0.63694520    -0.03546956     0.59591919
    -0.47094946    -0.06400073     0.55274372
    -0.28850157    -0.07003732     0.46471306
    -0.04601977    -0.04647287     0.30438103
     0.00000000     0.00000000     0.00000000
     0.00000000     0.00000000     0.00000000
    -1.23324398     0.07684650     0.39157383
    -1.01174613     0.08729756     0.54493861
    -0.81360205     0.07058983     0.60383684
    -0.64917047     0.04009200     0.59588898
    -0.48300100     0.00874617     0.56036197
    -0.29531368    -0.00225174     0.47790011
    -0.03918735     0.00019048     0.31312743
     0.00000000     0.00000000     0.00000000
     0.00000000     0.00000000     0.00000000
    -1.22942062     0.13361818     0.35986604
    -1.02657679     0.16620172     0.53122767
    -0.82802082     0.15034344     0.59129357
    -0.66077467     0.11798472     0.59071822
    -0.48966188     0.08785338     0.56208101
    -0.29259315     0.07228528     0.47876210
    -0.03849814     0.04969186     0.30463089
     0.00000000     0.00000000     0.00000000
     0.00000000     0.00000000     0.00000000
    -1.22962853     0.18808297     0.32601091
    -1.04452309     0.24396111     0.50161518
    -0.84549648     0.23583314     0.56789825
    -0.67205720     0.20481017     0.57746477
    -0.48836721     0.17719117     0.55409057
    -0.28352274     0.15104306     0.46495664
    -0.03040507     0.09271528     0.28270806
     0.00000000     0.00000000     0.00000000
     0.00000000     0.00000000     0.00000000
    -1.23188771     0.23418951     0.28570505
    -1.06283345     0.32108306     0.45657215
    -0.86512526     0.32680743     0.52820491
    -0.68052679     0.30365999     0.54887698
    -0.48329599     0.27428389     0.52843837
    -0.26928705     0.23244920     0.43814228
    -0.00644892     0.12486859     0.25154721
     0.00000000     0.00000000     0.00000000
     0.00000000     0.00000000     0.00000000
    -1.23928748     0.27600114     0.24511596
    -1.07939814     0.39150329     0.39618425
    -0.88253753     0.41978775     0.46879927
    -0.68848823     0.40723954     0.49640738
    -0.47714599     0.37321073     0.48038741
    -0.25977204     0.30751640     0.39303017
     0.00224881     0.15876920     0.21791553
     0.00000000     0.00000000     0.00000000
     0.00000000     0.00000000     0.00000000
    -1.03915495    -0.21796355     0.00000000
    -0.87690157    -0.23650576     0.00000000
    -0.65870512    -0.28984049     0.00000000
    -0.52518566    -0.31001177     0.00000000
    -0.41645146    -0.29293439     0.00000000
    -0.30766163    -0.24156991     0.00000000
    -0.18433397    -0.16915258     0.00000000
    -0.07285938    -0.05705973     0.00000000
     0.00000000     0.00000000     0.00000000
     0.00000000     0.00000000     0.00000000
    -1.03724668    -0.20970089     0.03967682
    -0.87477421    -0.23624915     0.05245449
    -0.66958444    -0.29336220     0.07490498
    -0.55015574    -0.31917448     0.07831541
    -0.44221112    -0.30306144     0.06938971
    -0.32637557    -0.25240258     0.05445299
    -0.19111620    -0.16855251     0.03182961
    -0.07308148    -0.04440631     0.00048474
     0.00000000     0.00000000     0.00000000
     0.00000000     0.00000000     0.00000000
    -1.03892142    -0.19986665     0.07951345
    -0.88720721    -0.23709115     0.09970301
    -0.68603665    -0.29321088     0.12911546
    -0.56704527    -0.32211732     0.13158865
    -0.45809812    -0.30528789     0.11490004
    -0.34082940    -0.25468641     0.09066197
    -0.20390163    -0.17093737     0.05722968
    -0.08046913    -0.04578716     0.01104335
     0.00000000     0.00000000     0.00000000
     0.00000000     0.00000000     0.00000000
    -1.04299609    -0.18701235     0.11637625
    -0.89871557    -0.22766800     0.14114983
    -0.70032988    -0.27927423     0.17448383
    -0.57814982    -0.30783227     0.17929924
    -0.46681559    -0.29376671     0.15844772
    -0.34709410    -0.24767369     0.12645256
    -0.20917418    -0.16943470     0.08375712
    -0.08442700    -0.04748961     0.01937350
     0.00000000     0.00000000     0.00000000
     0.00000000     0.00000000     0.00000000
    -1.04975760    -0.16928656     0.15135442
    -0.90973404    -0.20844058     0.18081803
    -0.71401397    -0.25309447     0.21780626
    -0.58665414    -0.27845236     0.22633378
    -0.47126607    -0.26958359     0.20299235
    -0.34873971    -0.23135735     0.16512054
    -0.21149531    -0.16328258     0.11287285
    -0.08697796    -0.05000668     0.03154888
     0.00000000     0.00000000     0.00000000
     0.00000000     0.00000000     0.00000000
    -1.05685375    -0.14552957     0.18384152
    -0.91995554    -0.18088330     0.21775441
    -0.72556050    -0.21643689     0.25920589
    -0.59343589    -0.23748313     0.27171699
    -0.47433149    -0.23424383     0.24802825
    -0.34962164    -0.20673775     0.20436276
    -0.21327904    -0.15153376     0.14298831
    -0.09041221    -0.05143258     0.04442492
     0.00000000     0.00000000     0.00000000
     0.00000000     0.00000000     0.00000000
    -1.06492313    -0.11738101     0.21333967
    -0.92737699    -0.14521033     0.24997645
    -0.73335595    -0.17179303     0.29797305
    -0.59931329    -0.18775290     0.31511252
    -0.47870893    -0.19047319     0.29133973
    -0.35309938    -0.17498044     0.24215904
    -0.21638551    -0.13399070     0.17069590
    -0.09502032    -0.04958628     0.05686950
     0.00000000     0.00000000     0.00000000
     0.00000000     0.00000000     0.00000000
    -1.07152084    -0.08462595     0.23819454
    -0.93243817    -0.10535523     0.27766889
    -0.73745179    -0.12068630     0.33349665
    -0.60605902    -0.13329718     0.35483561
    -0.48647379    -0.14206339     0.33049416
    -0.36189669    -0.13855547     0.27544924
    -0.22138774    -0.11263245     0.19355551
    -0.10052658    -0.04611931     0.06728379
     0.00000000     0.00000000     0.00000000
     0.00000000     0.00000000     0.00000000
    -1.08111992    -0.05070360     0.26053634
    -0.93357107    -0.05991085     0.29869970
    -0.74085092    -0.06769256     0.36447442
    -0.61495839    -0.07748019     0.38797659
    -0.49983707    -0.09370589     0.36258656
    -0.37471772    -0.10007546     0.30141072
    -0.23235064    -0.08917587     0.21073593
    -0.10283519    -0.04714448     0.07680831
     0.00000000     0.00000000     0.00000000
     0.00000000     0.00000000     0.00000000
    -1.09234968    -0.01207449     0.27935302
    -0.93429962    -0.01467851     0.31247939
    -0.74543076    -0.01334268     0.38796648
    -0.62762919    -0.02487015     0.41103096
    -0.51645397    -0.04690598     0.38497646
    -0.39157891    -0.06291776     0.31828850
    -0.24463437    -0.06308093     0.22185779
    -0.11505255    -0.04618352     0.08183139
     0.00000000     0.00000000     0.00000000
     0.00000000     0.00000000     0.00000000
    -1.10144008     0.02846933     0.28956902
    -0.93596592     0.03487375     0.31802539
    -0.75350402     0.03831895     0.39975411
    -0.64179818     0.02414350     0.42208618
    -0.53332678    -0.00263305     0.39546507
    -0.40807871    -0.02580424     0.32617470
    -0.25404176    -0.03600006     0.22483144
    -0.12517715    -0.03684418     0.08180201
     0.00000000     0.00000000     0.00000000
     0.00000000     0.00000000     0.00000000
    -1.10710394     0.07321664     0.28568546
    -0.94689620     0.07859253     0.31769265
    -0.76439899     0.08870819     0.39658813
    -0.65403325     0.07082843     0.42013701
    -0.54690160     0.04074123     0.39401385
    -0.41793840     0.01220551     0.32462835
    -0.25813512    -0.00699952     0.22142436
    -0.12548816    -0.02371000     0.07966455
     0.00000000     0.00000000     0.00000000
     0.00000000     0.00000000     0.00000000
    -1.11122767     0.11415262     0.27059083
    -0.96268002     0.12430231     0.30948814
    -0.77698982     0.13539756     0.37898878
    -0.66343810     0.11816749     0.40433153
    -0.55322100     0.08496476     0.38060168
    -0.41906504     0.05246705     0.31437513
    -0.25524491     0.02481769     0.21348044
    -0.11721976    -0.00991674     0.07589365
     0.00000000     0.00000000     0.00000000
     0.00000000     0.00000000     0.00000000
    -1.11949191     0.15465692     0.25024086
    -0.97858763     0.16651758     0.28937298
    -0.79201221     0.18206506     0.34902769
    -0.67019534     0.16694800     0.37385463
    -0.55313656     0.13225971     0.35491811
    -0.41124736     0.09504485     0.29574254
    -0.24651940     0.06187286     0.20156987
    -0.11080982     0.00537316     0.06786354
     0.00000000     0.00000000     0.00000000
     0.00000000     0.00000000     0.00000000
    -1.12856889     0.19094814     0.22253102
    -0.99662783     0.20975366     0.26068509
    -0.80819870     0.22819873     0.30790463
    -0.67664191     0.21792618     0.33006251
    -0.54876829     0.18303324     0.31642099
    -0.40016977     0.14068609     0.26834242
    -0.23105884     0.10143589     0.18773614
    -0.12638368     0.02909569     0.06332214
     0.00000000     0.00000000     0.00000000
     0.00000000     0.00000000     0.00000000
    -1.14047163     0.22535100     0.19133561
    -1.01249829     0.24922013     0.22297567
    -0.82457594     0.27465394     0.25900144
    -0.68337470     0.27048762     0.27501467
    -0.54526705     0.23655440     0.26693088
    -0.39100002     0.18922405     0.23119569
    -0.22060599     0.13632039     0.16843549
    -0.12127784     0.04374387     0.05856664
     0.00000000     0.00000000     0.00000000
     0.00000000     0.00000000     0.00000000
    -1.15002794     0.25550018     0.15704778
    -1.02558387     0.28470197     0.18111465
    -0.83780779     0.32042264     0.20435285
    -0.69021509     0.32383307     0.21252765
    -0.54762288     0.29168020     0.20863128
    -0.38823250     0.23635199     0.18537544
    -0.21784535     0.16716208     0.13934142
    -0.11120188     0.04709628     0.04842929
     0.00000000     0.00000000     0.00000000
     0.00000000     0.00000000     0.00000000
    -1.16010330     0.28329240     0.12216053
    -1.03243048     0.31534993     0.13565668
    -0.84661158     0.36569549     0.14679002
    -0.69956360     0.37657275     0.14690526
    -0.55778021     0.34563968     0.14570909
    -0.39603186     0.27955619     0.13314881
    -0.22112794     0.19215212     0.10330082
    -0.11001439     0.05028869     0.03665264
     0.00000000     0.00000000     0.00000000
     0.00000000     0.00000000     0.00000000
    -1.16819340     0.30703343     0.08375100
    -1.03426770     0.34101549     0.08841987
    -0.85282115     0.40865296     0.08880929
    -0.71284196     0.42587680     0.08256682
    -0.57696190     0.39505335     0.08332850
    -0.41338854     0.31768391     0.07785927
    -0.23208501     0.21193771     0.06209657
    -0.11309633     0.05195408     0.02249723
     0.00000000     0.00000000     0.00000000
     0.00000000     0.00000000     0.00000000