# vtk DataFile Version 3.0
Example VTK
ASCII
DATASET UNSTRUCTURED_GRID
POINTS   510 float
 -0.474951497488E+02 -0.155764375645E+02  0.000000000000E+00
 -0.395036495239E+02 -0.216055206773E+02  0.000000000000E+00
 -0.315517875168E+02 -0.253378259628E+02  0.000000000000E+00
 -0.236604471852E+02 -0.276237399932E+02  0.000000000000E+00
 -0.157977942693E+02 -0.288393798112E+02  0.000000000000E+00
 -0.793489319414E+01 -0.291011967554E+02  0.000000000000E+00
 -0.477970781735E-01 -0.284193169835E+02  0.000000000000E+00
  0.485806477600E+01 -0.266469127900E+02  0.000000000000E+00
  0.971612955200E+01 -0.247938255800E+02  0.000000000000E+00
 -0.500444694039E+02 -0.124613684710E+02  0.000000000000E+00
 -0.509981777921E+02 -0.934099737710E+01  0.000000000000E+00
 -0.515682832339E+02 -0.621969664801E+01  0.000000000000E+00
 -0.518911464185E+02 -0.308153413073E+01  0.000000000000E+00
 -0.520074811470E+02  0.650684788021E-01  0.000000000000E+00
 -0.519332553833E+02  0.322506121498E+01  0.000000000000E+00
 -0.516583156143E+02  0.637457277878E+01  0.000000000000E+00
 -0.511511120846E+02  0.951757582354E+01  0.000000000000E+00
 -0.502526803416E+02  0.126593768741E+02  0.000000000000E+00
 -0.477531467000E+02  0.157968652658E+02  0.000000000000E+00
 -0.397780575495E+02  0.218473045944E+02  0.000000000000E+00
 -0.318672203131E+02  0.256068327965E+02  0.000000000000E+00
 -0.239786643951E+02  0.279314820705E+02  0.000000000000E+00
 -0.160590941040E+02  0.291769890900E+02  0.000000000000E+00
 -0.808878730145E+01  0.294485825257E+02  0.000000000000E+00
  0.213995924526E-01  0.285631553608E+02  0.000000000000E+00
  0.371063367600E+01  0.266469127900E+02  0.000000000000E+00
  0.742126735300E+01  0.247938255800E+02  0.000000000000E+00
 -0.481036959414E+02 -0.153661986901E+02  0.242821510919E+01
 -0.394988274740E+02 -0.213386326181E+02  0.337896200287E+01
 -0.315473450700E+02 -0.250239253944E+02  0.395233623262E+01
 -0.236621144749E+02 -0.272848522441E+02  0.430419321913E+01
 -0.158026566422E+02 -0.284882489760E+02  0.448521467093E+01
 -0.793838892560E+01 -0.287538344200E+02  0.452872398664E+01
 -0.426874647364E-01 -0.280743065550E+02  0.443307302327E+01
  0.487577938100E+01 -0.263526544000E+02  0.396427664200E+01
  0.974471668600E+01 -0.245950934400E+02  0.257295191300E+01
 -0.500467021492E+02 -0.124023573033E+02  0.270680571491E+01
 -0.509446217142E+02 -0.933996830081E+01  0.292910451398E+01
 -0.514889844513E+02 -0.623165735918E+01  0.308066007764E+01
 -0.517988233716E+02 -0.309046778119E+01  0.315289417342E+01
 -0.519153260787E+02  0.673071265222E-01  0.314998249306E+01
 -0.518392615952E+02  0.323211247982E+01  0.315838704498E+01
 -0.515776989260E+02  0.638232183539E+01  0.309007316414E+01
 -0.510894940644E+02  0.950186987357E+01  0.295151485525E+01
 -0.502326687809E+02  0.125733170016E+02  0.274688227214E+01
 -0.483270308999E+02  0.155564663801E+02  0.246526986696E+01
 -0.397811155872E+02  0.215603824214E+02  0.341620488726E+01
 -0.318640893647E+02  0.252760315582E+02  0.400048620179E+01
 -0.239650055402E+02  0.275699305282E+02  0.437323935673E+01
 -0.160342422268E+02  0.287903026755E+02  0.459216753771E+01
 -0.805040896362E+01  0.290250001792E+02  0.464206188079E+01
  0.168938276439E-01  0.281597684053E+02  0.450666691786E+01
  0.373898642700E+01  0.263356989800E+02  0.400177498900E+01
  0.746269299800E+01  0.245641965300E+02  0.298701071100E+01
 -0.486531422483E+02 -0.147756029606E+02  0.480720500986E+01
 -0.395141203875E+02 -0.205648037900E+02  0.668861981867E+01
 -0.315655840617E+02 -0.241153847280E+02  0.782403275784E+01
 -0.236874394171E+02 -0.263027845769E+02  0.851511715065E+01
 -0.158260998289E+02 -0.274695510818E+02  0.887953996838E+01
 -0.795858912929E+01 -0.277237594317E+02  0.896400792280E+01
 -0.492007528355E-01 -0.270643354615E+02  0.876925354667E+01
  0.492848700300E+01 -0.254771248200E+02  0.783093963700E+01
  0.982977417800E+01 -0.240037904700E+02  0.508254921200E+01
 -0.500259414940E+02 -0.120498002186E+02  0.539515692347E+01
 -0.508000650208E+02 -0.912366945624E+01  0.584775200199E+01
 -0.512594543668E+02 -0.609215760186E+01  0.614613112748E+01
 -0.515244762782E+02 -0.302796032854E+01  0.630334369288E+01
 -0.516298044566E+02  0.682084708549E-01  0.630036765004E+01
 -0.515672990987E+02  0.316547907891E+01  0.630659243349E+01
 -0.513484114996E+02  0.623457634506E+01  0.616277250124E+01
 -0.509212445986E+02  0.926095010255E+01  0.588429712389E+01
 -0.501749465329E+02  0.121772143125E+02  0.544469596553E+01
 -0.488523811658E+02  0.149419651924E+02  0.483795838318E+01
 -0.397815903187E+02  0.207437294103E+02  0.672507768692E+01
 -0.318569321562E+02  0.243252019894E+02  0.788689692735E+01
 -0.239393918140E+02  0.265317807890E+02  0.862560636189E+01
 -0.159898321966E+02  0.276893303971E+02  0.903870020544E+01
 -0.801874252855E+01  0.278937079736E+02  0.912156095718E+01
  0.115302409109E-01  0.270787610753E+02  0.885390426851E+01
  0.382334654000E+01  0.254097206600E+02  0.790501299700E+01
  0.758594989700E+01  0.238809636100E+02  0.590047130500E+01
 -0.490915756942E+02 -0.138303236721E+02  0.706992604226E+01
 -0.395325359937E+02 -0.192814278775E+02  0.983851549618E+01
 -0.315881754001E+02 -0.226157816642E+02  0.115085435145E+02
 -0.237091541058E+02 -0.246757543043E+02  0.125300718204E+02
 -0.158418674943E+02 -0.257738056304E+02  0.130726363543E+02
 -0.797015299197E+01 -0.260047645568E+02  0.131976424246E+02
 -0.509985237934E-01 -0.253812537553E+02  0.129023186091E+02
  0.501488980600E+01 -0.240418825200E+02  0.115047789100E+02
  0.996920763000E+01 -0.230344765000E+02  0.746699728000E+01
 -0.499588489510E+02 -0.113378126483E+02  0.797458040356E+01
 -0.505011227917E+02 -0.865499901844E+01  0.869189493118E+01
 -0.508263440899E+02 -0.582405913085E+01  0.918361501741E+01
 -0.510151423441E+02 -0.289498408953E+01  0.943135176147E+01
 -0.510922780387E+02  0.591034928149E-01  0.944743525823E+01
 -0.510501312902E+02  0.300673621642E+01  0.944011715249E+01
 -0.509050296116E+02  0.593186768732E+01  0.921234798986E+01
 -0.506045396536E+02  0.876799075477E+01  0.872515270312E+01
 -0.500890939589E+02  0.114536535438E+02  0.799921697324E+01
 -0.492674496261E+02  0.139786343505E+02  0.708859392696E+01
 -0.397753701937E+02  0.194196978414E+02  0.987518347958E+01
 -0.318453222994E+02  0.227674396289E+02  0.115973387999E+02
 -0.239156645868E+02  0.248306883263E+02  0.126825761937E+02
 -0.159581096713E+02  0.259050716743E+02  0.132676311289E+02
 -0.799791802200E+01  0.260910574499E+02  0.133703832698E+02
  0.797922977177E-02  0.253520345613E+02  0.129792822486E+02
  0.396163679000E+01  0.238917785000E+02  0.116136033500E+02
  0.778800305500E+01  0.227609502700E+02  0.866864271200E+01
 -0.493780908957E+02 -0.125470001417E+02  0.915795920428E+01
 -0.395515763966E+02 -0.175161209553E+02  0.127481212007E+02
 -0.316106834751E+02 -0.205543505577E+02  0.149199300027E+02
 -0.237255153054E+02 -0.224368535182E+02  0.162518194240E+02
 -0.158488399235E+02 -0.234359640350E+02  0.169586803783E+02
 -0.797461372051E+01 -0.236371321947E+02  0.171139434814E+02
 -0.531409684980E-01 -0.230666372741E+02  0.167222114120E+02
  0.513286026600E+01 -0.220822679200E+02  0.148953323400E+02
  0.101595837300E+02 -0.217110192700E+02  0.966758309400E+01
 -0.497753676866E+02 -0.103391996763E+02  0.103901764042E+02
 -0.499727086077E+02 -0.794151101585E+01  0.113839889506E+02
 -0.500673969938E+02 -0.539357554578E+01  0.121124729960E+02
 -0.501319349574E+02 -0.269436495042E+01  0.125049796217E+02
 -0.501525109328E+02  0.404915183165E-01  0.125866986925E+02
 -0.501590840288E+02  0.277103065235E+01  0.125191500973E+02
 -0.501331538460E+02  0.546858892159E+01  0.121456036612E+02
 -0.500725936271E+02  0.804762593535E+01  0.114181941081E+02
 -0.498973818532E+02  0.104630844357E+02  0.104091969923E+02
 -0.495307116459E+02  0.126868507419E+02  0.916817060480E+01
 -0.397604404604E+02  0.176231160271E+02  0.127889270015E+02
 -0.318274692541E+02  0.206436022501E+02  0.150250885868E+02
 -0.238974790538E+02  0.225048567538E+02  0.164263441813E+02
 -0.159417626771E+02  0.234791195545E+02  0.171670249941E+02
 -0.799212632126E+01  0.236592761685E+02  0.172868335235E+02
  0.554793433012E-02  0.230131191900E+02  0.167915045979E+02
  0.415045201100E+01  0.218192492600E+02  0.150362282400E+02
  0.806387725500E+01  0.212317349700E+02  0.112233633700E+02
 -0.494829999642E+02 -0.109586590334E+02  0.110190101722E+02
 -0.395694540187E+02 -0.153109285436E+02  0.153460443155E+02
 -0.316301751068E+02 -0.179765290304E+02  0.179721647304E+02
 -0.237374291990E+02 -0.196323762365E+02  0.195858268630E+02
 -0.158521072897E+02 -0.205091584426E+02  0.204350570524E+02
 -0.797750856086E+01 -0.206797428325E+02  0.206121514273E+02
 -0.549760727821E-01 -0.201813431488E+02  0.201344138579E+02
  0.527949355900E+01 -0.196465332300E+02  0.179191132600E+02
  0.103962147800E+02 -0.200660066800E+02  0.116301209300E+02
 -0.493983989107E+02 -0.910574427359E+01  0.126136291093E+02
 -0.395843137963E+02 -0.127238873632E+02  0.175656830227E+02
 -0.316452119001E+02 -0.149448609901E+02  0.205846094641E+02
 -0.237473791450E+02 -0.163300538345E+02  0.224391164903E+02
 -0.158572928678E+02 -0.170661121098E+02  0.234081490993E+02
 -0.798290557218E+01 -0.172099771042E+02  0.236025915256E+02
 -0.558881046552E-01 -0.167951146324E+02  0.230557975230E+02
  0.545708352200E+01 -0.166965753800E+02  0.205768184200E+02
  0.107782649500E+02 -0.174100689700E+02  0.138160665800E+02
 -0.491335808367E+02 -0.703235615240E+01  0.139060748022E+02
 -0.395948682860E+02 -0.982222137810E+01  0.193537473481E+02
 -0.316553283811E+02 -0.115391507053E+02  0.226867125968E+02
 -0.237574089343E+02 -0.126164707027E+02  0.247326758854E+02
 -0.158687184350E+02 -0.131984982584E+02  0.257987229407E+02
 -0.799207585890E+01 -0.133173477050E+02  0.260107617589E+02
[...]
POINT_DATA       510
VECTORS displacement float 
    -1.89514975    -0.57643756     0.00000000
    -1.50364952    -0.79217014     0.00000000
    -1.15178752    -0.88196494     0.00000000
    -0.86044719    -0.85009850     0.00000000
    -0.59779427    -0.76158052     0.00000000
    -0.33489319    -0.60119676     0.00000000
    -0.04779708    -0.34151769     0.00000000
     0.00000000     0.00000000     0.00000000
     0.00000000     0.00000000     0.00000000
    -2.04446940    -0.46136847     0.00000000
    -2.19817779    -0.34099738     0.00000000
    -2.30222267    -0.21969665     0.00000000
    -2.37196283    -0.08153413     0.00000000
    -2.40748115     0.06506848     0.00000000
    -2.41407179     0.22506121     0.00000000
    -2.39225505     0.37457278     0.00000000
    -2.35111208     0.51757582     0.00000000
    -2.25268034     0.65937687     0.00000000
    -2.15314670     0.79686527     0.00000000
    -1.77805755     1.03395405     0.00000000
    -1.46722031     1.15097178     0.00000000
    -1.17866440     1.15784058     0.00000000
    -0.85909410     1.09918980     0.00000000
    -0.48878730     0.94858253     0.00000000
     0.02139959     0.48535607     0.00000000
     0.00000000     0.00000000     0.00000000
     0.00000000     0.00000000     0.00000000
    -1.88566195    -0.55087358     0.08169813
    -1.49882747    -0.78152896     0.12303665
    -1.14734507    -0.86915661     0.12659670
    -0.86211447    -0.84083871     0.11587294
    -0.60265664    -0.75613400     0.09287916
    -0.33838893    -0.60471671     0.07034173
    -0.04268746    -0.34219157     0.04073751
     0.00000000     0.00000000     0.00000000
     0.00000000     0.00000000     0.00000000
    -2.05498347    -0.48379773     0.09959743
    -2.19695678    -0.36159394     0.12096696
    -2.29472119    -0.22700447     0.13741188
    -2.35968900    -0.08236343     0.14478983
    -2.39614249     0.06730713     0.14998249
    -2.40012723     0.22400813     0.15028270
    -2.38343567     0.37766895     0.14682496
    -2.34182913     0.52349552     0.14337730
    -2.24095010     0.65475743     0.13967398
    -2.10899691     0.74114127     0.11875289
    -1.78111559     1.00327876     0.16027953
    -1.46408936     1.12126278     0.17474667
    -1.16500554     1.12591700     0.18491907
    -0.83424223     1.05818770     0.19983203
    -0.45040896     0.87588247     0.18367963
     0.01689383     0.42765343     0.11433141
     0.00000000     0.00000000     0.00000000
     0.00000000     0.00000000     0.00000000
    -1.87757175    -0.50975522     0.17195009
    -1.51412039    -0.77013113     0.25694079
    -1.16558406    -0.85647875     0.26675609
    -0.88743942    -0.83953838     0.24160693
    -0.62609983    -0.76597711     0.20302282
    -0.35858913    -0.61864872     0.15702358
    -0.04920075    -0.36076149     0.09273640
     0.00000000     0.00000000     0.00000000
     0.00000000     0.00000000     0.00000000
    -2.02861119    -0.50452306     0.22696357
    -2.18228560    -0.38580222     0.26614432
    -2.27064159    -0.22877281     0.28274634
    -2.33021302    -0.08471213     0.29869080
    -2.36374390     0.06820847     0.30036765
    -2.37303584     0.22223088     0.30193954
    -2.35959872     0.37119156     0.29938771
    -2.30346518     0.52308287     0.30268944
    -2.17761623     0.63193715     0.27650262
    -2.07681067     0.67611745     0.20270347
    -1.78159032     0.94905675     0.29339866
    -1.45693216     1.06629601     0.32962026
    -1.13939181     1.06853459     0.35209614
    -0.78983220     0.98575643     0.36218306
    -0.41874253     0.78859726     0.31457662
     0.01153024     0.37518711     0.17738712
     0.00000000     0.00000000     0.00000000
     0.00000000     0.00000000     0.00000000
    -1.87354170    -0.46522581     0.26006855
    -1.53253599    -0.73659676     0.38945208
    -1.18817540    -0.82544994     0.40581495
    -0.90915411    -0.82026506     0.37509294
    -0.64186749    -0.75630328     0.32558222
    -0.37015299    -0.61107862     0.25891318
    -0.05099852    -0.36375141     0.15526448
     0.00000000     0.00000000     0.00000000
     0.00000000     0.00000000     0.00000000
    -1.99161866    -0.44683591     0.33671028
    -2.12188160    -0.36840242     0.40529833
    -2.20856467    -0.24245145     0.44574778
    -2.26747741    -0.08684654     0.45297740
    -2.29227804     0.05910349     0.44743526
    -2.30246636     0.19859866     0.46174279
    -2.28725019     0.35026001     0.47448076
    -2.22529846     0.48139416     0.43855611
    -2.12186367     0.56267680     0.36134685
    -2.04941564     0.61353649     0.27873643
    -1.77537019     0.87486672     0.42612007
    -1.44532230     0.97710791     0.49461024
    -1.11566459     0.97519909     0.52759731
    -0.75810967     0.88756932     0.52057700
    -0.39791802     0.69737151     0.43165403
     0.00797923     0.33453221     0.23222812
     0.00000000     0.00000000     0.00000000
     0.00000000     0.00000000     0.00000000
    -1.87597787    -0.41174522     0.34118042
    -1.55157640    -0.67776666     0.51434070
    -1.21068348    -0.76914339     0.54513556
    -0.92551531    -0.77652255     0.51466780
    -0.64883992    -0.72054725     0.45496404
    -0.37461372    -0.58014785     0.36206379
    -0.05314097    -0.35122048     0.21849507
     0.00000000     0.00000000     0.00000000
     0.00000000     0.00000000     0.00000000
    -1.94370093    -0.36579782     0.41677454
    -2.00547832    -0.30364089     0.49301221
    -2.07006669    -0.22538220     0.56719584
    -2.14021628    -0.08715666     0.58642005
    -2.15251093     0.04049152     0.58669869
    -2.16736535     0.16382236     0.60059053
    -2.13582355     0.30039557     0.60032650
    -2.10536334     0.40975581     0.52721737
    -2.06571509     0.48968257     0.43579513
    -2.02859862     0.55159582     0.35139182
    -1.76044046     0.78476173     0.55514650
    -1.42746925     0.85839508     0.65029415
    -1.09747905     0.84452578     0.68919256
    -0.74176268     0.76370276     0.66330865
    -0.39212632     0.60229183     0.53495383
     0.00554793     0.29770240     0.28778826
     0.00000000     0.00000000     0.00000000
     0.00000000     0.00000000     0.00000000
    -1.88299996    -0.35205731     0.41240845
    -1.56945402    -0.59366723     0.62878301
    -1.23017511    -0.68362387     0.67925957
    -0.93742920    -0.70055279     0.65400341
    -0.65210729    -0.65515616     0.58105477
    -0.37750856    -0.52719957     0.45960817
    -0.05497607    -0.32734087     0.28041158
     0.00000000     0.00000000     0.00000000
     0.00000000     0.00000000     0.00000000
    -1.89628588    -0.28896549     0.47837419
    -1.58431380    -0.49010686     0.72732872
    -1.24521190    -0.57006655     0.79940229
    -0.94737914    -0.59290221     0.77878552
    -0.65729287    -0.56239577     0.69273231
    -0.38290557    -0.45809741     0.54560719
    -0.05588810    -0.29139829     0.34038073
     0.00000000     0.00000000     0.00000000
     0.00000000     0.00000000     0.00000000
    -1.91554685    -0.22249866     0.54097694
    -1.59486829    -0.37315797     0.80891623
    -1.25532838    -0.43642215     0.89638088
    -0.95740893    -0.46149182     0.87718665
    -0.66871844    -0.45144413     0.78122059
    -0.39207586    -0.37861846     0.61707582
    -0.05844160    -0.23925803     0.39184264
     0.00000000     0.00000000     0.00000000
     0.00000000     0.00000000     0.00000000
    -1.94246179    -0.14932373     0.60205347
    -1.60022307    -0.24820557     0.87177774
    -1.26146544    -0.29149211     0.96588342
    -0.96952734    -0.32059056     0.94227582
    -0.68689496    -0.33135269     0.84421350
    -0.40685665    -0.29430858     0.67399369
    -0.06962844    -0.17839693     0.41934032
     0.00000000     0.00000000     0.00000000
     0.00000000     0.00000000     0.00000000
    -1.97456594    -0.06875117     0.66356937
    -1.60286754    -0.11611280     0.91354309
    -1.26708438    -0.14676170     1.00644376
    -0.98416061    -0.18069712     0.97698636
    -0.71029086    -0.21228346     0.88328162
    -0.42734956    -0.20224812     0.71718203
    -0.07956404    -0.13044319     0.44955497
     0.00000000     0.00000000     0.00000000
     0.00000000     0.00000000     0.00000000
    -2.00934049     0.02594838     0.71257320
    -1.60698610     0.01912249     0.93394464
    -1.27624489    -0.00745729     1.02127545
    -1.00123685    -0.04964628     0.98961049
    -0.73451993    -0.09459971     0.90482481
    -0.44799090    -0.10451670     0.74982536
    -0.06917444    -0.06999395     0.48328790
     0.00000000     0.00000000     0.00000000
     0.00000000     0.00000000     0.00000000
    -2.00528776     0.13447253     0.68304576
    -1.62497806     0.15450057     0.93217925
    -1.29023817     0.12620878     1.01626707
    -1.02081937     0.07621513     0.98896129
    -0.75309128     0.02430302     0.91579242
    -0.45829078     0.00460990     0.76965328
    -0.06013332     0.00428472     0.49577748
     0.00000000     0.00000000     0.00000000
     0.00000000     0.00000000     0.00000000
    -1.99927066     0.23809146     0.62813956
    -1.65016656     0.28931611     0.90885430
    -1.31264273     0.26186227     0.99425142
    -1.03996710     0.20570718     0.97963019
    -0.76226183     0.15365889     0.91712680
    -0.45429167     0.12429494     0.76932908
    -0.05652554     0.08221709     0.48044213
     0.00000000     0.00000000     0.00000000
     0.00000000     0.00000000     0.00000000
    -1.99816010     0.33149994     0.56796170
    -1.68004014     0.42485710     0.85777453
    -1.34149225     0.40608660     0.95370124
    -1.05738021     0.35046840     0.95644810
    -0.75975264     0.29900731     0.90251824
    -0.43811141     0.25049254     0.74513150
    -0.04615676     0.14943457     0.44486500
     0.00000000     0.00000000     0.00000000
     0.00000000     0.00000000     0.00000000
    -2.00339830     0.41479682     0.49849629
    -1.71014067     0.55701312     0.77931198
    -1.37333436     0.56003414     0.88578139
    -1.07100019     0.51378090     0.90734614
    -0.75043160     0.45699291     0.85908246
    -0.41552948     0.37966515     0.70010277
    -0.00599135     0.19976809     0.39427725
     0.00000000     0.00000000     0.00000000
     0.00000000     0.00000000     0.00000000
    -2.01320885     0.48660799     0.42556022
    -1.73801589     0.67874172     0.67560056
    -1.40284993     0.71534315     0.78399026
    -1.08336044     0.68491508     0.81928666
    -0.74113303     0.61670277     0.77914148
    -0.39958816     0.49849318     0.62665544
     0.00472350     0.25248216     0.34103244
     0.00000000     0.00000000     0.00000000
     0.00000000     0.00000000     0.00000000
    -1.68110084    -0.39129810     0.00000000
    -1.40412424    -0.42000799     0.00000000
    -1.04166949    -0.50725427     0.00000000
    -0.82037674    -0.53243219     0.00000000
    -0.64838543    -0.50115381     0.00000000
    -0.47563915    -0.41084273     0.00000000
    -0.28449208    -0.28715058     0.00000000
    -0.10886658    -0.09843028     0.00000000
     0.00000000     0.00000000     0.00000000
     0.00000000     0.00000000     0.00000000
    -1.67923814    -0.37578009     0.07113336
    -1.40237156    -0.41613791     0.09271038
    -1.06278461    -0.50979884     0.12914746
    -0.86557540    -0.54426580     0.13216220
    -0.69518962    -0.51412406     0.11464038
    -0.51069653    -0.42522739     0.08854737
    -0.30019536    -0.28458086     0.05200381
    -0.11347371    -0.07872432     0.00163702
     0.00000000     0.00000000     0.00000000
     0.00000000     0.00000000     0.00000000
    -1.68250081    -0.35830520     0.14242182
    -1.42224096    -0.41570191     0.17575458
    -1.08983969    -0.50752262     0.22410483
    -0.89355420    -0.54676011     0.22397041
    -0.72201803    -0.51474418     0.19282562
    -0.53401012    -0.42598227     0.15054585
    -0.32061490    -0.28650448     0.09535808
    -0.12449441    -0.08023759     0.02022016
     0.00000000     0.00000000     0.00000000
     0.00000000     0.00000000     0.00000000
    -1.68919175    -0.33466164     0.20898574
    -1.44104713    -0.39747067     0.24894807
    -1.11283989    -0.48143514     0.30389552
    -0.91246506    -0.52081786     0.30665677
    -0.73630393    -0.49287592     0.26800504
    -0.54437254    -0.41194917     0.21213060
    -0.32874397    -0.28196789     0.14105728
    -0.13102645    -0.08215334     0.03523182
     0.00000000     0.00000000     0.00000000
     0.00000000     0.00000000     0.00000000
    -1.69949942    -0.30136723     0.27149228
    -1.45981339    -0.36286041     0.31925760
    -1.13502379    -0.43451046     0.37980257
    -0.92706144    -0.47018495     0.38802397
    -0.74293239    -0.45045579     0.34451703
    -0.54697084    -0.38309186     0.27838543
    -0.33171595    -0.26995787     0.19079780
    -0.13535944    -0.08517182     0.05654552
     0.00000000     0.00000000     0.00000000
     0.00000000     0.00000000     0.00000000
    -1.71052500    -0.25779631     0.32883641
    -1.47714909    -0.31389442     0.38438834
    -1.15398062    -0.37032227     0.45161209
    -0.93854545    -0.40036056     0.46606131
    -0.74677594    -0.38981213     0.42109516
    -0.54793615    -0.34083618     0.34503091
    -0.33355107    -0.24877690     0.24174794
    -0.14115922    -0.08614941     0.07860878
     0.00000000     0.00000000     0.00000000
     0.00000000     0.00000000     0.00000000
    -1.72198255    -0.20587430     0.37970780
    -1.49026119    -0.25214184     0.44119361
    -1.16674071    -0.29313193     0.51793226
    -0.94798577    -0.31586530     0.53983159
    -0.75262605    -0.31585232     0.49385902
    -0.55282677    -0.28698788     0.40847762
    -0.33768586    -0.21856156     0.28805946
    -0.14830722    -0.08185501     0.09968854
     0.00000000     0.00000000     0.00000000
     0.00000000     0.00000000     0.00000000
    -1.73475047    -0.14903240     0.42447519
    -1.49773340    -0.18151734     0.48857396
    -1.17356088    -0.20597494     0.57827598
    -0.95779653    -0.22354280     0.60612171
    -0.76445838    -0.23430861     0.55894514
    -0.56552086    -0.22582085     0.46337811
    -0.34556273    -0.18217797     0.32593879
    -0.15616070    -0.07471242     0.11709948
     0.00000000     0.00000000     0.00000000
     0.00000000     0.00000000     0.00000000
    -1.74937423    -0.08714090     0.46221931
    -1.50035620    -0.10417598     0.52554609
    -1.17799542    -0.11485870     0.62991195
    -0.97153249    -0.12883205     0.66068957
    -0.78469805    -0.15315840     0.61146353
    -0.58571736    -0.16131326     0.50557508
    -0.36202677    -0.14265885     0.35378635
    -0.16014085    -0.07455960     0.13265716
     0.00000000     0.00000000     0.00000000
     0.00000000     0.00000000     0.00000000
    -1.76773772    -0.02043210     0.49426810
    -1.50088559    -0.02305012     0.54824504
    -1.18462395    -0.02212471     0.66867012
    -0.99077717    -0.03954461     0.69789643
    -0.81108677    -0.07429438     0.64752576
    -0.61192272    -0.09929596     0.53238929
    -0.38148918    -0.09868358     0.37128846
    -0.17803942    -0.07153130     0.14094254
     0.00000000     0.00000000     0.00000000
     0.00000000     0.00000000     0.00000000
    -1.78241340     0.05262510     0.51047031
    -1.50291965     0.06046070     0.55738037
    -1.19637996     0.06812496     0.68704622
    -1.01308246     0.04405890     0.71527364
    -0.83756067     0.00034464     0.66358535
    -0.63826671    -0.03704386     0.54446072
    -0.39560788    -0.05312343     0.37534388
    -0.19499417    -0.05581261     0.14097375
     0.00000000     0.00000000     0.00000000
     0.00000000     0.00000000     0.00000000
    -1.79054957     0.13093331     0.50185434
    -1.52119404     0.14150142     0.55525652
    -1.21258061     0.15508486     0.68011711
    -1.03261205     0.12427899     0.71136745
    -0.85847985     0.07401729     0.65977498
    -0.65403283     0.02685503     0.54123159
    -0.40145434    -0.00444229     0.36911686
    -0.19476397    -0.03322561     0.13749265
     0.00000000     0.00000000     0.00000000
     0.00000000     0.00000000     0.00000000
    -1.79701434     0.20455631     0.47468404
    -1.54608895     0.21975042     0.53995547
    -1.23224946     0.23783512     0.64889426
    -1.04753770     0.20622237     0.68439077
    -0.86782724     0.14925208     0.63659268
    -0.65531113     0.09492033     0.52367934
    -0.39590917     0.04880934     0.35566465
    -0.18288926    -0.00987281     0.13142752
     0.00000000     0.00000000     0.00000000
     0.00000000     0.00000000     0.00000000
    -1.80973044     0.27554566     0.43750343
    -1.57294035     0.29699137     0.50396961
    -1.25639095     0.31931815     0.59708979
    -1.05822222     0.29110497     0.63290059
    -0.86694567     0.22988138     0.59356368
    -0.64199956     0.16687514     0.49245075
    -0.38152949     0.11024317     0.33573615
    -0.17222833     0.01542531     0.11856383
     0.00000000     0.00000000     0.00000000
     0.00000000     0.00000000     0.00000000
    -1.82642478     0.34136550     0.38911375
    -1.60150047     0.37242854     0.45231766
    -1.28388478     0.40089940     0.52664499
    -1.06863740     0.37914965     0.55894813
    -0.85980849     0.31638163     0.52976305
    -0.62344895     0.24362190     0.44687175
    -0.35708124     0.17538644     0.31249719
    -0.19789373     0.05299899     0.11066606
     0.00000000     0.00000000     0.00000000
     0.00000000     0.00000000     0.00000000
    -1.84403196     0.40046983     0.33248776
    -1.62924728     0.44342447     0.38692676
    -1.31165245     0.48125685     0.44231510
    -1.08010739     0.46961887     0.46650641
    -0.85437255     0.40665637     0.44729522
    -0.60833797     0.32464817     0.38558937
    -0.34117929     0.23275617     0.28037191
    -0.18990097     0.07673878     0.10191849
     0.00000000     0.00000000     0.00000000
     0.00000000     0.00000000     0.00000000
    -1.86033016     0.45367088     0.27252614
    -1.65163513     0.50545552     0.31397611
    -1.33407457     0.55966932     0.34882033
    -1.09326433     0.56023228     0.36141114
    -0.85799016     0.49842737     0.35028431
    -0.60542163     0.40241835     0.31028166
    -0.33652735     0.28353773     0.23310842
    -0.17659461     0.08281350     0.08496115
     0.00000000     0.00000000     0.00000000
     0.00000000     0.00000000     0.00000000
    -1.87596688     0.50100946     0.21124518
    -1.66464583     0.55944701     0.23558344
    -1.34897534     0.63545645     0.25053233
    -1.11033778     0.64851364     0.25106559
    -0.87540324     0.58663490     0.24562188
    -0.61961376     0.47285248     0.22456312
    -0.34267298     0.32418940     0.17460043
    -0.17579859     0.08835152     0.06548184
     0.00000000     0.00000000     0.00000000
     0.00000000     0.00000000     0.00000000
    -1.88928017     0.54167769     0.14468226
    -1.66866770     0.60382961     0.15394888
    -1.35951618     0.70655438     0.15199572
    -1.13411425     0.72928260     0.14283507
    -0.90808383     0.66606578     0.14204372
    -0.65029049     0.53389506     0.13374236
    -0.36121558     0.35588727     0.10719411
    -0.18254211     0.09122222     0.04253958
     0.00000000     0.00000000     0.00000000
     0.00000000     0.00000000     0.00000000