# vtk DataFile Version 3.0
Example VTK
ASCII
DATASET UNSTRUCTURED_GRID
POINTS   510 float
 -0.459946640896E+02 -0.151038293781E+02  0.000000000000E+00
 -0.383232385453E+02 -0.209637350406E+02  0.000000000000E+00
 -0.306531043559E+02 -0.246273466531E+02  0.000000000000E+00
 -0.229943419890E+02 -0.269441417559E+02  0.000000000000E+00
 -0.153358766596E+02 -0.282349612897E+02  0.000000000000E+00
 -0.767684284873E+01 -0.286274378741E+02  0.000000000000E+00
 -0.101441715610E-01 -0.281521889718E+02  0.000000000000E+00
  0.485806477600E+01 -0.266469127900E+02  0.000000000000E+00
  0.971612955200E+01 -0.247938255800E+02  0.000000000000E+00
 -0.484231865446E+02 -0.120828036000E+02  0.000000000000E+00
 -0.492493073058E+02 -0.905917586045E+01  0.000000000000E+00
 -0.497363919386E+02 -0.604136391569E+01  0.000000000000E+00
 -0.500004130655E+02 -0.301098119690E+01  0.000000000000E+00
 -0.500890940718E+02  0.671849935355E-02  0.000000000000E+00
 -0.500099923223E+02  0.304395177122E+01  0.000000000000E+00
 -0.497523728209E+02  0.606110825985E+01  0.000000000000E+00
 -0.492821024445E+02  0.909409023788E+01  0.000000000000E+00
 -0.484615566206E+02  0.121153779899E+02  0.000000000000E+00
 -0.460511037141E+02  0.151452020073E+02  0.000000000000E+00
 -0.383806083762E+02  0.210055913703E+02  0.000000000000E+00
 -0.307253662000E+02  0.246809958908E+02  0.000000000000E+00
 -0.230634096644E+02  0.270067256618E+02  0.000000000000E+00
 -0.153989298459E+02  0.283085950138E+02  0.000000000000E+00
 -0.771184119271E+01  0.287070538715E+02  0.000000000000E+00
  0.976609275162E-03  0.281868070589E+02  0.000000000000E+00
  0.371063367600E+01  0.266469127900E+02  0.000000000000E+00
  0.742126735300E+01  0.247938255800E+02  0.000000000000E+00
 -0.466110164507E+02 -0.149136884431E+02  0.236129052436E+01
 -0.383229730721E+02 -0.207050609044E+02  0.327872067040E+01
 -0.306530208486E+02 -0.243236447985E+02  0.384957659834E+01
 -0.229954346093E+02 -0.266127154482E+02  0.421071961559E+01
 -0.153375258944E+02 -0.278880311795E+02  0.441086432616E+01
 -0.767841618022E+01 -0.282770336106E+02  0.447279565974E+01
 -0.989754575914E-02 -0.278064140530E+02  0.440123124193E+01
  0.487577938100E+01 -0.263526544000E+02  0.396427664200E+01
  0.974471668600E+01 -0.245950934400E+02  0.257295191300E+01
 -0.484171741681E+02 -0.120053856874E+02  0.262514883173E+01
 -0.491967483026E+02 -0.904100574689E+01  0.282983591975E+01
 -0.496631710392E+02 -0.604703167137E+01  0.296769482193E+01
 -0.499182755603E+02 -0.301908016795E+01  0.303447158633E+01
 -0.500061401491E+02  0.665779529921E-02  0.302690809987E+01
 -0.499267344689E+02  0.305301230292E+01  0.303466215037E+01
 -0.496781402947E+02  0.606641628942E+01  0.297061962937E+01
 -0.492270729977E+02  0.907355065636E+01  0.283404336952E+01
 -0.484499282699E+02  0.120322636409E+02  0.263215243228E+01
 -0.466599665462E+02  0.149500527443E+02  0.236854352564E+01
 -0.383806783817E+02  0.207436560612E+02  0.328632310187E+01
 -0.307242087078E+02  0.243735436012E+02  0.386131996585E+01
 -0.230608195679E+02  0.266701806774E+02  0.422650769526E+01
 -0.153936501072E+02  0.279539349581E+02  0.443527967829E+01
 -0.770395624570E+01  0.283405246407E+02  0.449861762863E+01
  0.117942441392E-02  0.278290786135E+02  0.441789689851E+01
  0.373898642700E+01  0.263356989800E+02  0.400177498900E+01
  0.746269299800E+01  0.245641965300E+02  0.298701071100E+01
 -0.471665493031E+02 -0.143564859542E+02  0.466605159615E+01
 -0.383261183559E+02 -0.199409370589E+02  0.647972422463E+01
 -0.306564531284E+02 -0.234260671717E+02  0.760813981812E+01
 -0.230004242802E+02 -0.256326103540E+02  0.832093071725E+01
 -0.153418027956E+02 -0.268621085638E+02  0.871740714147E+01
 -0.768287090740E+01 -0.272363462382E+02  0.883926957700E+01
 -0.109667122879E-01 -0.267820247198E+02  0.869641075239E+01
  0.492848700300E+01 -0.254771248200E+02  0.783093963700E+01
  0.982977417800E+01 -0.240037904700E+02  0.508254921200E+01
 -0.484191780633E+02 -0.116371979176E+02  0.520908821234E+01
 -0.490637608190E+02 -0.880396908549E+01  0.562876757918E+01
 -0.494536221026E+02 -0.590734206535E+01  0.591375536978E+01
 -0.496681971913E+02 -0.295322511896E+01  0.605765537489E+01
 -0.497473748149E+02  0.649993436534E-02  0.605385877480E+01
 -0.496771491927E+02  0.298852010178E+01  0.605863103973E+01
 -0.494681864106E+02  0.592294978586E+01  0.591531598621E+01
 -0.490913556757E+02  0.883300575070E+01  0.563421467915E+01
 -0.484432816933E+02  0.116530135923E+02  0.521455780857E+01
 -0.472113403619E+02  0.143884424111E+02  0.467261398351E+01
 -0.383805411592E+02  0.199705753134E+02  0.648736035493E+01
 -0.307232179453E+02  0.234658929223E+02  0.762321775758E+01
 -0.230561842633E+02  0.256768183658E+02  0.834577973671E+01
 -0.153858002150E+02  0.269094264342E+02  0.875378664411E+01
 -0.769792027937E+01  0.272775472700E+02  0.887643714065E+01
 -0.488639838600E-03  0.267891952951E+02  0.871684248114E+01
  0.382334654000E+01  0.254097206600E+02  0.790501299700E+01
  0.758594989700E+01  0.238809636100E+02  0.590047130500E+01
 -0.476083043587E+02 -0.134477392494E+02  0.685620787453E+01
 -0.383296368652E+02 -0.186850978406E+02  0.952220073761E+01
 -0.306613047025E+02 -0.219522736989E+02  0.111805184865E+02
 -0.230046407596E+02 -0.240218682031E+02  0.122290335931E+02
 -0.153453668719E+02 -0.251747764206E+02  0.128127564877E+02
 -0.768533401876E+01 -0.255239766983E+02  0.129920467385E+02
 -0.116923346335E-01 -0.250969641436E+02  0.127801332361E+02
  0.501488980600E+01 -0.240418825200E+02  0.115047789100E+02
  0.996920763000E+01 -0.230344765000E+02  0.746699728000E+01
 -0.483825749995E+02 -0.109727084957E+02  0.769893900680E+01
 -0.488146622018E+02 -0.835026648956E+01  0.835802384599E+01
 -0.490717473354E+02 -0.562740003832E+01  0.881731954457E+01
 -0.492106927650E+02 -0.281930856944E+01  0.905853605160E+01
 -0.492686133780E+02  0.632794828424E-02  0.908014268129E+01
 -0.492180898769E+02  0.284812147954E+01  0.906211107168E+01
 -0.490848861734E+02  0.563840690262E+01  0.882203977411E+01
 -0.488396903939E+02  0.837458001664E+01  0.836666897070E+01
 -0.484040588305E+02  0.109879081190E+02  0.770094890717E+01
 -0.476482038975E+02  0.134758608317E+02  0.686145013915E+01
 -0.383795269264E+02  0.187065278570E+02  0.952952439103E+01
 -0.307204376768E+02  0.219789639432E+02  0.112010779521E+02
 -0.230523946532E+02  0.240492947132E+02  0.122625422590E+02
 -0.153791790584E+02  0.252018505173E+02  0.128579897616E+02
 -0.769493370025E+01  0.255456147117E+02  0.130344105380E+02
 -0.229931439805E-03  0.250937266587E+02  0.128003947489E+02
  0.396163679000E+01  0.238917785000E+02  0.116136033500E+02
  0.778800305500E+01  0.227609502700E+02  0.866864271200E+01
 -0.478933393453E+02 -0.122086682183E+02  0.887776166811E+01
 -0.383333117490E+02 -0.169677364411E+02  0.123304219959E+02
 -0.306662518321E+02 -0.199370301878E+02  0.144798496416E+02
 -0.230081312536E+02 -0.218186832516E+02  0.158391326385E+02
 -0.153473969854E+02 -0.228663148230E+02  0.165958091095E+02
 -0.768654918825E+01 -0.231816764575E+02  0.168266265148E+02
 -0.123229347181E-01 -0.227927708214E+02  0.165503295692E+02
  0.513286026600E+01 -0.220822679200E+02  0.148953323400E+02
  0.101595837300E+02 -0.217110192700E+02  0.966758309400E+01
 -0.482386768783E+02 -0.100408241032E+02  0.100490789215E+02
 -0.483805605725E+02 -0.768978636581E+01  0.109772900178E+02
 -0.484276279625E+02 -0.521143370965E+01  0.116478438327E+02
 -0.484316882140E+02 -0.261926706287E+01  0.120221956325E+02
 -0.484439383594E+02  0.369155778171E-02  0.121055669412E+02
 -0.484380896556E+02  0.263991425607E+01  0.120263793885E+02
 -0.484356059515E+02  0.521727779147E+01  0.116493133214E+02
 -0.484042324584E+02  0.771198286000E+01  0.109858410508E+02
 -0.482539529298E+02  0.100558439725E+02  0.100463470927E+02
 -0.479275060236E+02  0.122343460508E+02  0.888121217051E+01
 -0.383767131318E+02  0.169830915615E+02  0.123388185432E+02
 -0.307167624097E+02  0.199498403436E+02  0.145030486650E+02
 -0.230488010262E+02  0.218272405634E+02  0.158773678641E+02
 -0.153760816668E+02  0.228728375238E+02  0.166444729545E+02
 -0.769384485844E+01  0.231871785597E+02  0.168706008769E+02
 -0.161994911757E-02  0.227829235088E+02  0.165701859615E+02
  0.415045201100E+01  0.218192492600E+02  0.150362282400E+02
  0.806387725500E+01  0.212317349700E+02  0.112233633700E+02
 -0.479931914713E+02 -0.106697312583E+02  0.106803996334E+02
 -0.383366724962E+02 -0.148309140183E+02  0.148355767510E+02
 -0.306709046603E+02 -0.174286949047E+02  0.174243581862E+02
 -0.230105629012E+02 -0.190755145569E+02  0.190617853391E+02
 -0.153491061926E+02 -0.199923979141E+02  0.199720944500E+02
 -0.768718998667E+01 -0.202671024357E+02  0.202479099087E+02
 -0.132642483658E-01 -0.199267610084E+02  0.199139911538E+02
  0.527949355900E+01 -0.196465332300E+02  0.179191132600E+02
  0.103962147800E+02 -0.200660066800E+02  0.116301209300E+02
 -0.478988499400E+02 -0.886921928202E+01  0.122214070856E+02
 -0.383398998350E+02 -0.123277779213E+02  0.169752649461E+02
 -0.306745330419E+02 -0.144888580860E+02  0.199404471348E+02
 -0.230134478686E+02 -0.158596712955E+02  0.218154712258E+02
 -0.153512300669E+02 -0.166239333751E+02  0.228568786322E+02
 -0.768895983374E+01 -0.168528188760E+02  0.231710155260E+02
 -0.136136273332E-01 -0.165695024231E+02  0.227886952599E+02
  0.545708352200E+01 -0.166965753800E+02  0.205768184200E+02
  0.107782649500E+02 -0.174100689700E+02  0.138160665800E+02
 -0.476180055132E+02 -0.684988344666E+01  0.134620070600E+02
 -0.383426793708E+02 -0.952122004534E+01  0.186975050338E+02
 -0.306772305128E+02 -0.111906476028E+02  0.219646378149E+02
 -0.230164386899E+02 -0.122515275405E+02  0.240306794689E+02
 -0.153544005082E+02 -0.128448551338E+02  0.251777768739E+02
 -0.769181013322E+01 -0.130236482482E+02  0.255237339521E+02
[...]
POINT_DATA       510
VECTORS displacement float 
    -0.39466409    -0.10382938     0.00000000
    -0.32323855    -0.15038450     0.00000000
    -0.25310436    -0.17148563     0.00000000
    -0.19434199    -0.17050027     0.00000000
    -0.13587666    -0.15716200     0.00000000
    -0.07684285    -0.12743787     0.00000000
    -0.01014417    -0.07438968     0.00000000
     0.00000000     0.00000000     0.00000000
     0.00000000     0.00000000     0.00000000
    -0.42318654    -0.08280360     0.00000000
    -0.44930731    -0.05917586     0.00000000
    -0.47033138    -0.04136392     0.00000000
    -0.48122948    -0.01098120     0.00000000
    -0.48909407     0.00671850     0.00000000
    -0.49080873     0.04395177     0.00000000
    -0.48631226     0.06110826     0.00000000
    -0.48210244     0.09409024     0.00000000
    -0.46155662     0.11537799     0.00000000
    -0.45110371     0.14520201     0.00000000
    -0.38060838     0.19224083     0.00000000
    -0.32536620     0.22513487     0.00000000
    -0.26340966     0.23308417     0.00000000
    -0.19892985     0.23079572     0.00000000
    -0.11184119     0.20705387     0.00000000
     0.00097661     0.10900777     0.00000000
     0.00000000     0.00000000     0.00000000
     0.00000000     0.00000000     0.00000000
    -0.39298246    -0.09836333     0.01477355
    -0.32297307    -0.14795724     0.02279531
    -0.25302085    -0.16887602     0.02383706
    -0.19543461    -0.16870192     0.02239933
    -0.13752589    -0.15591620     0.01852882
    -0.07841618    -0.12791590     0.01441341
    -0.00989755    -0.07429907     0.00889573
     0.00000000     0.00000000     0.00000000
     0.00000000     0.00000000     0.00000000
    -0.42545549    -0.08682612     0.01794054
    -0.44908337    -0.06263139     0.02169837
    -0.46890778    -0.04237878     0.02444662
    -0.47914119    -0.01097582     0.02636724
    -0.48695656     0.00665780     0.02690810
    -0.48760010     0.04490795     0.02655780
    -0.48387703     0.06176340     0.02737143
    -0.47940807     0.09517630     0.02590582
    -0.45820959     0.11370407     0.02494414
    -0.44193256     0.13472763     0.02202655
    -0.38067838     0.18655240     0.03039774
    -0.32420871     0.21877482     0.03558043
    -0.26081957     0.22616715     0.03818741
    -0.19365011     0.22181998     0.04294417
    -0.10395625     0.19140693     0.04023537
     0.00117942     0.09696363     0.02556139
     0.00000000     0.00000000     0.00000000
     0.00000000     0.00000000     0.00000000
    -0.39097880    -0.09063821     0.03079668
    -0.32611836    -0.14626440     0.04804520
    -0.25645313    -0.16716119     0.05086315
    -0.20042428    -0.16936415     0.04742050
    -0.14180280    -0.15853459     0.04089000
    -0.08287091    -0.13123553     0.03228524
    -0.01096671    -0.07845075     0.01989361
     0.00000000     0.00000000     0.00000000
     0.00000000     0.00000000     0.00000000
    -0.42184776    -0.09192076     0.04089486
    -0.44598140    -0.06610185     0.04715990
    -0.46480932    -0.04395728     0.05037058
    -0.47393393    -0.00997692     0.05300249
    -0.48131425     0.00649993     0.05385877
    -0.48288593     0.04527190     0.05397815
    -0.47937363     0.05956500     0.05193120
    -0.47357626     0.09513852     0.05260700
    -0.44595139     0.10773643     0.04636446
    -0.43576986     0.12259467     0.03735907
    -0.38054116     0.17590265     0.05568133
    -0.32321795     0.20698694     0.06594109
    -0.25618426     0.21357217     0.07226952
    -0.18580021     0.20585246     0.07726950
    -0.09792028     0.17243656     0.06945280
    -0.00048864     0.08562133     0.04032534
     0.00000000     0.00000000     0.00000000
     0.00000000     0.00000000     0.00000000
    -0.39027037    -0.08264139     0.04635038
    -0.32963687    -0.14026672     0.07313732
    -0.26130470    -0.16194198     0.07778993
    -0.20464076    -0.16637896     0.07405471
    -0.14536687    -0.15727407     0.06570236
    -0.08533402    -0.13029076     0.05331750
    -0.01169233    -0.07946179     0.03307911
     0.00000000     0.00000000     0.00000000
     0.00000000     0.00000000     0.00000000
    -0.41534471    -0.08173176     0.06106888
    -0.43542101    -0.06366989     0.07142725
    -0.45396792    -0.04579236     0.07945231
    -0.46302783    -0.01117102     0.08016169
    -0.46861338     0.00632795     0.08014268
    -0.47042495     0.03998393     0.08373671
    -0.46710675     0.05679922     0.08417254
    -0.46044920     0.08798342     0.08007237
    -0.43682854     0.09693138     0.06307879
    -0.43016991     0.11076297     0.05159264
    -0.37952693     0.16169674     0.08046098
    -0.32043768     0.18863222     0.09834939
    -0.25239465     0.19380547     0.10756338
    -0.17917906     0.18434817     0.11093563
    -0.09493370     0.15192877     0.09568130
    -0.00022993     0.07622431     0.05334062
     0.00000000     0.00000000     0.00000000
     0.00000000     0.00000000     0.00000000
    -0.39122632    -0.07341330     0.06098288
    -0.33331175    -0.12938214     0.09664150
    -0.26625183    -0.15182302     0.10505520
    -0.20813125    -0.15835228     0.10198102
    -0.14739699    -0.15089803     0.09209277
    -0.08654919    -0.12469212     0.07474682
    -0.01232293    -0.07735403     0.04661323
     0.00000000     0.00000000     0.00000000
     0.00000000     0.00000000     0.00000000
    -0.40701012    -0.06742224     0.07567706
    -0.41333028    -0.05191624     0.08631328
    -0.43029766    -0.04324036     0.10256667
    -0.43996953    -0.01205877     0.10363606
    -0.44393836     0.00369156     0.10556694
    -0.44637098     0.03270597     0.10781982
    -0.43827565     0.04908444     0.10403616
    -0.43700217     0.07411274     0.09486431
    -0.42228617     0.08244211     0.07294523
    -0.42539299     0.09909113     0.06443339
    -0.37671313     0.14473726     0.10503804
    -0.31676241     0.16463317     0.12825423
    -0.24880103     0.16690959     0.14021624
    -0.17608167     0.15742073     0.14075661
    -0.09384486     0.13019422     0.11872119
    -0.00161995     0.06750672     0.06646962
     0.00000000     0.00000000     0.00000000
     0.00000000     0.00000000     0.00000000
    -0.39319147    -0.06312954     0.07379791
    -0.33667250    -0.11365271     0.11831544
    -0.27090466    -0.13578974     0.13145303
    -0.21056290    -0.14369111     0.12996189
    -0.14910619    -0.13839563     0.11809217
    -0.08718999    -0.11455918     0.09536665
    -0.01326425    -0.07275873     0.05998887
     0.00000000     0.00000000     0.00000000
     0.00000000     0.00000000     0.00000000
    -0.39673691    -0.05244050     0.08615217
    -0.33989983    -0.09399742     0.13691065
    -0.27453304    -0.11406365     0.15523996
    -0.21344787    -0.12251968     0.15514026
    -0.15123007    -0.12021704     0.14146184
    -0.08895983    -0.10093919     0.11403119
    -0.01361363    -0.06578608     0.07327847
     0.00000000     0.00000000     0.00000000
     0.00000000     0.00000000     0.00000000
    -0.39997152    -0.04002595     0.09690920
    -0.34267937    -0.07215663     0.15267391
    -0.27723051    -0.08791904     0.17430609
    -0.21643869    -0.09654866     0.17519023
    -0.15440051    -0.09780100     0.16027452
    -0.09181013    -0.08491901     0.13004801
    -0.01412307    -0.05480163     0.08505968
     0.00000000     0.00000000     0.00000000
     0.00000000     0.00000000     0.00000000
    -0.40618847    -0.02788829     0.10892899
    -0.34419832    -0.04810679     0.16455375
    -0.27914063    -0.05973453     0.18798946
    -0.21973080    -0.06834700     0.18864433
    -0.15918300    -0.07333674     0.17390719
    -0.09544877    -0.06727844     0.14317377
    -0.01713410    -0.04180858     0.09169754
     0.00000000     0.00000000     0.00000000
     0.00000000     0.00000000     0.00000000
    -0.41253840    -0.01171041     0.11975899
    -0.34532346    -0.02370023     0.17261714
    -0.28091825    -0.03127226     0.19596144
    -0.22361755    -0.04038841     0.19599577
    -0.16459190    -0.04870784     0.18271034
    -0.10066321    -0.04771072     0.15322714
    -0.01893139    -0.03103130     0.09925977
     0.00000000     0.00000000     0.00000000
     0.00000000     0.00000000     0.00000000
    -0.41962093     0.00301592     0.12979045
    -0.34646661     0.00260496     0.17625843
    -0.28348888    -0.00438938     0.19898649
    -0.22764062    -0.01388085     0.19885297
    -0.17044421    -0.02430629     0.18791366
    -0.10514067    -0.02663949     0.16094596
    -0.01767034    -0.01752401     0.10762838
     0.00000000     0.00000000     0.00000000
     0.00000000     0.00000000     0.00000000
    -0.41933781     0.02490797     0.12440933
    -0.34999908     0.02717816     0.17565693
    -0.28702360     0.02182413     0.19821645
    -0.23206542     0.01134664     0.19891387
    -0.17503346     0.00064422     0.19092199
    -0.10780609    -0.00304552     0.16600371
    -0.01462790    -0.00095163     0.11112863
     0.00000000     0.00000000     0.00000000
     0.00000000     0.00000000     0.00000000
    -0.41815655     0.04161025     0.11421732
    -0.35488658     0.05296690     0.17104117
    -0.29240402     0.04782879     0.19416851
    -0.23605468     0.03756559     0.19720208
    -0.17807274     0.02771133     0.19185512
    -0.10678924     0.02312501     0.16686228
    -0.01534585     0.01677085     0.10872813
     0.00000000     0.00000000     0.00000000
     0.00000000     0.00000000     0.00000000
    -0.41875087     0.05973227     0.10371573
    -0.36091321     0.07747591     0.16140121
    -0.29831109     0.07611270     0.18650220
    -0.24039392     0.06645312     0.19283233
    -0.17789381     0.05854236     0.18941772
    -0.10436961     0.05077673     0.16260853
    -0.01160964     0.03246861     0.10141233
     0.00000000     0.00000000     0.00000000
     0.00000000     0.00000000     0.00000000
    -0.41897636     0.07363352     0.09047096
    -0.36718000     0.10251422     0.14703610
    -0.30512260     0.10569458     0.17338021
    -0.24349803     0.09973817     0.18347962
    -0.17667411     0.09176031     0.18088559
    -0.09953033     0.07972528     0.15376835
    -0.00396432     0.04431559     0.09071509
     0.00000000     0.00000000     0.00000000
     0.00000000     0.00000000     0.00000000
    -0.42220716     0.08738786     0.07819146
    -0.37254751     0.12474405     0.12735731
    -0.31080024     0.13641205     0.15415382
    -0.24659412     0.13423609     0.16593731
    -0.17449152     0.12593859     0.16483706
    -0.09659719     0.10632427     0.13827497
     0.00012232     0.05672158     0.07865265
     0.00000000     0.00000000     0.00000000
     0.00000000     0.00000000     0.00000000
    -0.35429759    -0.06793735     0.00000000
    -0.30277755    -0.07466256     0.00000000
    -0.23120772    -0.09247037     0.00000000
    -0.18703958    -0.10072420     0.00000000
    -0.14887931    -0.09538992     0.00000000
    -0.11056615    -0.07894950     0.00000000
    -0.06607260    -0.05515958     0.00000000
    -0.02614446    -0.01765374     0.00000000
     0.00000000     0.00000000     0.00000000
     0.00000000     0.00000000     0.00000000
    -0.35351467    -0.06521665     0.01248478
    -0.30216395    -0.07480023     0.01663338
    -0.23466626    -0.09383656     0.02419789
    -0.19527977    -0.10405529     0.02571429
    -0.15742616    -0.09919542     0.02320495
    -0.11702579    -0.08314145     0.01840447
    -0.06839062    -0.05521609     0.01067570
    -0.02657154    -0.01340379    -0.00013059
     0.00000000     0.00000000     0.00000000
     0.00000000     0.00000000     0.00000000
    -0.35386084    -0.06201682     0.02489519
    -0.30637215    -0.07537682     0.03171932
    -0.24006683    -0.09406143     0.04153281
    -0.20095656    -0.10542567     0.04305287
    -0.16260624    -0.10044294     0.03799778
    -0.12206156    -0.08449522     0.03015219
    -0.07274865    -0.05643568     0.01884896
    -0.02928845    -0.01402724     0.00309965
     0.00000000     0.00000000     0.00000000
     0.00000000     0.00000000     0.00000000
    -0.35518217    -0.05803802     0.03635305
    -0.31016133    -0.07260096     0.04492853
    -0.24492833    -0.08985525     0.05600346
    -0.20463052    -0.10099092     0.05847955
    -0.16564875    -0.09705296     0.05205463
    -0.12427946    -0.08260382     0.04170655
    -0.07470542    -0.05637637     0.02730602
    -0.03067649    -0.01485116     0.00552435
     0.00000000     0.00000000     0.00000000
     0.00000000     0.00000000     0.00000000
    -0.35768145    -0.05280158     0.04736620
    -0.31369018    -0.06652484     0.05752351
    -0.24970345    -0.08172418     0.06987173
    -0.20747648    -0.09146818     0.07366944
    -0.16749437    -0.08944251     0.06650561
    -0.12495377    -0.07753428     0.05422726
    -0.07579609    -0.05478591     0.03670959
    -0.03149088    -0.01603756     0.00922759
     0.00000000     0.00000000     0.00000000
     0.00000000     0.00000000     0.00000000
    -0.36037040    -0.04558430     0.05779628
    -0.31706212    -0.05776668     0.06923391
    -0.25387022    -0.07011997     0.08320919
    -0.20988258    -0.07815402     0.08832063
    -0.16909127    -0.07813887     0.08121520
    -0.12547944    -0.06968737     0.06702542
    -0.07683319    -0.05136912     0.04651477
    -0.03258275    -0.01698185     0.01329476
     0.00000000     0.00000000     0.00000000
     0.00000000     0.00000000     0.00000000
    -0.36369594    -0.03714092     0.06746832
    -0.31953881    -0.04617562     0.07934786
    -0.25686831    -0.05586992     0.09576274
    -0.21219647    -0.06202036     0.10237833
    -0.17118070    -0.06391889     0.09547345
    -0.12701273    -0.05944217     0.07945010
    -0.07829327    -0.04590514     0.05567782
    -0.03424683    -0.01676855     0.01724914
     0.00000000     0.00000000     0.00000000
     0.00000000     0.00000000     0.00000000
    -0.36544045    -0.02633370     0.07492791
    -0.32179489    -0.03382722     0.08832697
    -0.25855796    -0.03930332     0.10718713
    -0.21513973    -0.04439337     0.11543057
    -0.17423803    -0.04814279     0.10841148
    -0.13068426    -0.04759856     0.09060869
    -0.08016235    -0.03910340     0.06328219
    -0.03657469    -0.01610764     0.02061830
     0.00000000     0.00000000     0.00000000
     0.00000000     0.00000000     0.00000000
    -0.36916606    -0.01620890     0.08223879
    -0.32217351    -0.01886445     0.09472202
    -0.26036642    -0.02241006     0.11728445
    -0.21856778    -0.02630035     0.12636568
    -0.17944133    -0.03232021     0.11915670
    -0.13537222    -0.03501929     0.09941993
    -0.08445290    -0.03152550     0.06915333
    -0.03733176    -0.01687842     0.02380412
     0.00000000     0.00000000     0.00000000
     0.00000000     0.00000000     0.00000000
    -0.37305332    -0.00342492     0.08815416
    -0.32288674    -0.00527906     0.09927800
    -0.26232268    -0.00476986     0.12491444
    -0.22345137    -0.00919676     0.13405901
    -0.18540409    -0.01701248     0.12673069
    -0.14166919    -0.02276469     0.10528899
    -0.08882292    -0.02301113     0.07307752
    -0.04221529    -0.01699084     0.02543549
     0.00000000     0.00000000     0.00000000
     0.00000000     0.00000000     0.00000000
    -0.37626707     0.00879802     0.09159736
    -0.32380567     0.01150972     0.10085400
    -0.26556441     0.01149390     0.12889636
    -0.22857046     0.00678013     0.13772877
    -0.19160751    -0.00245091     0.13045159
    -0.14754411    -0.01048679     0.10808874
    -0.09251359    -0.01412682     0.07428251
    -0.04536223    -0.01391588     0.02540483
     0.00000000     0.00000000     0.00000000
     0.00000000     0.00000000     0.00000000
    -0.37864917     0.02318946     0.09067846
    -0.32736050     0.02407977     0.10084194
    -0.26976608     0.02797599     0.12800926
    -0.23289340     0.02193130     0.13704664
    -0.19676077     0.01184594     0.13022542
    -0.15110367     0.00210229     0.10767045
    -0.09424786    -0.00448611     0.07329440
    -0.04576135    -0.00979554     0.02466615
     0.00000000     0.00000000     0.00000000
     0.00000000     0.00000000     0.00000000
    -0.38020691     0.03581473     0.08589057
    -0.33289675     0.03944133     0.09814280
    -0.27429934     0.04265106     0.12244673
    -0.23626531     0.03731836     0.13179587
    -0.19939176     0.02643373     0.12592761
    -0.15175101     0.01547021     0.10432488
    -0.09368564     0.00610105     0.07072479
    -0.04242062    -0.00528086     0.02339481
     0.00000000     0.00000000     0.00000000
     0.00000000     0.00000000     0.00000000
    -0.38335209     0.04901882     0.07970365
    -0.33800220     0.05205177     0.09174423
    -0.27955848     0.05783309     0.11273561
    -0.23878954     0.05298912     0.12176929
    -0.19973319     0.04207607     0.11738601
    -0.14942191     0.02955240     0.09818086
    -0.09087431     0.01865194     0.06682432
    -0.04046208    -0.00024306     0.02062609
     0.00000000     0.00000000     0.00000000
     0.00000000     0.00000000     0.00000000
    -0.38587519     0.06006663     0.07064492
    -0.34454347     0.06613819     0.08293461
    -0.28484363     0.07237133     0.09931579
    -0.24124018     0.06955853     0.10743653
    -0.19840291     0.05869729     0.10446617
    -0.14599526     0.04476087     0.08908754
    -0.08545925     0.03204395     0.06232305
    -0.04573595     0.00802694     0.01931835
     0.00000000     0.00000000     0.00000000
     0.00000000     0.00000000     0.00000000
    -0.39059146     0.07152158     0.06120578
    -0.34950051     0.07818242     0.07068547
    -0.29041028     0.08742293     0.08366307
    -0.24366202     0.08643450     0.08928618
    -0.19736839     0.07637717     0.08809406
    -0.14310773     0.06086707     0.07660187
    -0.08170325     0.04384200     0.05596377
    -0.04391681     0.01296582     0.01803720
     0.00000000     0.00000000     0.00000000
     0.00000000     0.00000000     0.00000000
    -0.39375415     0.08101975     0.05019286
    -0.35378942     0.08938171     0.05734497
    -0.29504777     0.10216211     0.06604785
    -0.24566252     0.10369474     0.06882871
    -0.19858169     0.09465832     0.06875180
    -0.14179561     0.07664834     0.06118539
    -0.08102047     0.05413941     0.04599442
    -0.03939833     0.01388405     0.01476877
     0.00000000     0.00000000     0.00000000
     0.00000000     0.00000000     0.00000000
    -0.39753971     0.09014643     0.03911085
    -0.35573010     0.09877393     0.04276895
    -0.29823606     0.11702601     0.04754728
    -0.24857706     0.12081291     0.04736708
    -0.20206891     0.11284681     0.04793428
    -0.14419237     0.09119511     0.04357187
    -0.08202092     0.06259646     0.03369559
    -0.03864491     0.01474829     0.01090553
     0.00000000     0.00000000     0.00000000
     0.00000000     0.00000000     0.00000000
    -0.40029091     0.09772092     0.02675562
    -0.35619276     0.10682177     0.02776452
    -0.30046328     0.13110833     0.02882765
    -0.25266501     0.13710173     0.02638784
    -0.20842384     0.12967131     0.02722708
    -0.14956350     0.10425337     0.02496465
    -0.08568489     0.06936522     0.01975569
    -0.03915531     0.01522627     0.00613010
     0.00000000     0.00000000     0.00000000
     0.00000000     0.00000000     0.00000000