# vtk DataFile Version 3.0
Example VTK
ASCII
DATASET UNSTRUCTURED_GRID
POINTS   510 float
 -0.475087946678E+02 -0.155552228493E+02  0.000000000000E+00
 -0.395290808374E+02 -0.215853668552E+02  0.000000000000E+00
 -0.315793814785E+02 -0.253208423714E+02  0.000000000000E+00
 -0.236886289924E+02 -0.276146013736E+02  0.000000000000E+00
 -0.158187533825E+02 -0.288371857109E+02  0.000000000000E+00
 -0.794821900975E+01 -0.291041728473E+02  0.000000000000E+00
 -0.481812848573E-01 -0.284245126834E+02  0.000000000000E+00
  0.485806477600E+01 -0.266469127900E+02  0.000000000000E+00
  0.971612955200E+01 -0.247938255800E+02  0.000000000000E+00
 -0.500563211760E+02 -0.124441558015E+02  0.000000000000E+00
 -0.510015608385E+02 -0.932541207333E+01  0.000000000000E+00
 -0.515705627033E+02 -0.621379901298E+01  0.000000000000E+00
 -0.518884277816E+02 -0.307432186254E+01  0.000000000000E+00
 -0.520048654055E+02  0.569693498574E-01  0.000000000000E+00
 -0.519312894054E+02  0.321968827102E+01  0.000000000000E+00
 -0.516567641350E+02  0.635112136860E+01  0.000000000000E+00
 -0.511561031835E+02  0.949653404305E+01  0.000000000000E+00
 -0.502586338309E+02  0.126288624096E+02  0.000000000000E+00
 -0.477721158036E+02  0.157671702512E+02  0.000000000000E+00
 -0.398068532518E+02  0.218167357192E+02  0.000000000000E+00
 -0.319057969173E+02  0.255891563261E+02  0.000000000000E+00
 -0.240130796614E+02  0.279238100752E+02  0.000000000000E+00
 -0.160933811718E+02  0.291818765385E+02  0.000000000000E+00
 -0.810885629210E+01  0.294640881809E+02  0.000000000000E+00
  0.170194229429E-01  0.285764862653E+02  0.000000000000E+00
  0.371063367600E+01  0.266469127900E+02  0.000000000000E+00
  0.742126735300E+01  0.247938255800E+02  0.000000000000E+00
 -0.481184505802E+02 -0.153446142631E+02  0.242502170131E+01
 -0.395257920302E+02 -0.213180429805E+02  0.337475518142E+01
 -0.315769451763E+02 -0.250069826249E+02  0.394836449772E+01
 -0.236921789146E+02 -0.272759927041E+02  0.430131958856E+01
 -0.158255585608E+02 -0.284861580642E+02  0.448374993506E+01
 -0.795383931831E+01 -0.287569436576E+02  0.452830746485E+01
 -0.452379970341E-01 -0.280796340542E+02  0.443351369366E+01
  0.487577938100E+01 -0.263526544000E+02  0.396427664200E+01
  0.974471668600E+01 -0.245950934400E+02  0.257295191300E+01
 -0.500585322403E+02 -0.123841594449E+02  0.270281178110E+01
 -0.509480714254E+02 -0.932329143967E+01  0.292401194387E+01
 -0.514915173180E+02 -0.622470862477E+01  0.307462860330E+01
 -0.517967997580E+02 -0.308269925908E+01  0.314727916145E+01
 -0.519133402885E+02  0.586051089273E-01  0.314355441949E+01
 -0.518373729866E+02  0.322810615353E+01  0.315109031378E+01
 -0.515758760402E+02  0.635959701681E+01  0.308468691594E+01
 -0.510938259617E+02  0.948118801067E+01  0.294584298670E+01
 -0.502376145081E+02  0.125425337360E+02  0.274140292617E+01
 -0.483460157027E+02  0.155289175920E+02  0.246191378979E+01
 -0.398086215118E+02  0.215307467460E+02  0.341260137957E+01
 -0.319014580988E+02  0.252581045087E+02  0.399998315996E+01
 -0.239989707045E+02  0.275617971426E+02  0.437345475587E+01
 -0.160672168728E+02  0.287945547709E+02  0.459450417343E+01
 -0.806917831867E+01  0.290385056939E+02  0.464586335646E+01
  0.146249198980E-01  0.281712751218E+02  0.451014695307E+01
  0.373898642700E+01  0.263356989800E+02  0.400177498900E+01
  0.746269299800E+01  0.245641965300E+02  0.298701071100E+01
 -0.486678906253E+02 -0.147553951485E+02  0.480016102578E+01
 -0.395409516229E+02 -0.205453790855E+02  0.668042104275E+01
 -0.315948143026E+02 -0.241002101154E+02  0.781684149536E+01
 -0.237171352343E+02 -0.262956912792E+02  0.851051567362E+01
 -0.158484321047E+02 -0.274686765952E+02  0.887736593291E+01
 -0.797438481968E+01 -0.277277133773E+02  0.896359061076E+01
 -0.513377142092E-01 -0.270701214511E+02  0.877027531224E+01
  0.492848700300E+01 -0.254771248200E+02  0.783093963700E+01
  0.982977417800E+01 -0.240037904700E+02  0.508254921200E+01
 -0.500397783512E+02 -0.120329416274E+02  0.538622183484E+01
 -0.508034445956E+02 -0.910578571985E+01  0.583620290354E+01
 -0.512633229861E+02 -0.608677949787E+01  0.613401402442E+01
 -0.515239118208E+02 -0.301896595045E+01  0.629027303668E+01
 -0.516296441340E+02  0.590024436755E-01  0.628762695407E+01
 -0.515670458974E+02  0.316220034568E+01  0.629368093897E+01
 -0.513476054315E+02  0.621135125962E+01  0.614858781949E+01
 -0.509281979348E+02  0.924071946500E+01  0.587080182287E+01
 -0.501814655418E+02  0.121454231120E+02  0.543068870353E+01
 -0.488721931430E+02  0.149163733629E+02  0.483170552708E+01
 -0.398087660599E+02  0.207145469889E+02  0.671840030420E+01
 -0.318948432473E+02  0.243061198248E+02  0.788429691333E+01
 -0.239740340556E+02  0.265220996877E+02  0.862538987188E+01
 -0.160236373960E+02  0.276917828733E+02  0.904211316271E+01
 -0.803746098980E+01  0.279051941268E+02  0.912782373891E+01
  0.847598410862E-02  0.270893087076E+02  0.885932288676E+01
  0.382334654000E+01  0.254097206600E+02  0.790501299700E+01
  0.758594989700E+01  0.238809636100E+02  0.590047130500E+01
 -0.491067580010E+02 -0.138120916981E+02  0.705901618100E+01
 -0.395588902877E+02 -0.192636149050E+02  0.982658109868E+01
 -0.316175754427E+02 -0.226027341886E+02  0.114984066488E+02
 -0.237383321972E+02 -0.246703639486E+02  0.125238276651E+02
 -0.158645256124E+02 -0.257741088072E+02  0.130696772206E+02
 -0.798598826241E+01 -0.260094529005E+02  0.131973014130E+02
 -0.536400629159E-01 -0.253874905308E+02  0.129039472987E+02
  0.501488980600E+01 -0.240418825200E+02  0.115047789100E+02
  0.996920763000E+01 -0.230344765000E+02  0.746699728000E+01
 -0.499743656994E+02 -0.113234217599E+02  0.796181921382E+01
 -0.505075318024E+02 -0.863915692627E+01  0.867415989146E+01
 -0.508330266350E+02 -0.581807225497E+01  0.916516445795E+01
 -0.510178873611E+02 -0.288752483099E+01  0.941173566105E+01
 -0.510955937555E+02  0.516555326712E-01  0.942887606183E+01
 -0.510531863690E+02  0.300298802669E+01  0.942237476048E+01
 -0.509079560387E+02  0.591085916614E+01  0.919256733160E+01
 -0.506155238516E+02  0.874977774559E+01  0.870976708943E+01
 -0.500986538911E+02  0.114263859446E+02  0.798343828988E+01
 -0.492874144822E+02  0.139547271773E+02  0.708005062446E+01
 -0.398027402514E+02  0.193918493529E+02  0.986491598026E+01
 -0.318826517565E+02  0.227479808383E+02  0.115925428571E+02
 -0.239512441888E+02  0.248198546117E+02  0.126814799751E+02
 -0.159913428716E+02  0.259054943700E+02  0.132722534108E+02
 -0.801764870930E+01  0.261000553259E+02  0.133788690331E+02
  0.587607936914E-02  0.253610319655E+02  0.129866372850E+02
  0.396163679000E+01  0.238917785000E+02  0.116136033500E+02
  0.778800305500E+01  0.227609502700E+02  0.866864271200E+01
 -0.493940131680E+02 -0.125314923857E+02  0.914394359864E+01
 -0.395775402777E+02 -0.175005216003E+02  0.127326265812E+02
 -0.316402697068E+02 -0.205438522475E+02  0.149073403820E+02
 -0.237546113716E+02 -0.224331972853E+02  0.162440653936E+02
 -0.158719821572E+02 -0.234376926752E+02  0.169550890334E+02
 -0.799076323077E+01 -0.236426911685E+02  0.171137284074E+02
 -0.560024078755E-01 -0.230733618130E+02  0.167245580732E+02
  0.513286026600E+01 -0.220822679200E+02  0.148953323400E+02
  0.101595837300E+02 -0.217110192700E+02  0.966758309400E+01
 -0.497930674639E+02 -0.103283349443E+02  0.103745705165E+02
 -0.499827581767E+02 -0.792841814160E+01  0.113621195251E+02
 -0.500809670992E+02 -0.538929105318E+01  0.120911472009E+02
 -0.501397164027E+02 -0.268832953908E+01  0.124802236701E+02
 -0.501621030481E+02  0.341948475296E-01  0.125639256223E+02
 -0.501678204494E+02  0.276729842091E+01  0.124957989975E+02
 -0.501403797189E+02  0.545090692552E+01  0.121184339133E+02
 -0.500862356604E+02  0.803121343896E+01  0.113985145426E+02
 -0.499044450488E+02  0.104373015498E+02  0.103869367943E+02
 -0.495501577038E+02  0.126646873031E+02  0.915653960637E+01
 -0.397879672466E+02  0.175973673446E+02  0.127755768232E+02
 -0.318646253555E+02  0.206245372583E+02  0.150174014233E+02
 -0.239330814194E+02  0.224935741684E+02  0.164244363378E+02
 -0.159750691085E+02  0.234775307152E+02  0.171720732525E+02
 -0.801184266223E+01  0.236655830654E+02  0.172970617546E+02
  0.243503481805E-02  0.230205541304E+02  0.168006264683E+02
  0.415045201100E+01  0.218192492600E+02  0.150362282400E+02
  0.806387725500E+01  0.212317349700E+02  0.112233633700E+02
 -0.494995389618E+02 -0.109460943995E+02  0.110022441770E+02
 -0.395950192962E+02 -0.152981393842E+02  0.153276405134E+02
 -0.316603573596E+02 -0.179687416848E+02  0.179575797022E+02
 -0.237663294059E+02 -0.196304747386E+02  0.195768177808E+02
 -0.158762386137E+02 -0.205123085263E+02  0.204312161118E+02
 -0.799372158158E+01 -0.206862151521E+02  0.206123729346E+02
 -0.584864422558E-01 -0.201884303451E+02  0.201376656729E+02
  0.527949355900E+01 -0.196465332300E+02  0.179191132600E+02
  0.103962147800E+02 -0.200660066800E+02  0.116301209300E+02
 -0.494158497582E+02 -0.909652190862E+01  0.125949682907E+02
 -0.396100963287E+02 -0.127140086731E+02  0.175448507697E+02
 -0.316759052014E+02 -0.149398631176E+02  0.205685503265E+02
 -0.237771341240E+02 -0.163299303666E+02  0.224293118656E+02
 -0.158824862267E+02 -0.170706605061E+02  0.234045201183E+02
 -0.799992846385E+01 -0.172172812782E+02  0.236038021047E+02
 -0.595207534301E-01 -0.168025577665E+02  0.230602565869E+02
  0.545708352200E+01 -0.166965753800E+02  0.205768184200E+02
  0.107782649500E+02 -0.174100689700E+02  0.138160665800E+02
 -0.491500741733E+02 -0.702522713988E+01  0.138845928970E+02
 -0.396213688921E+02 -0.981587331413E+01  0.193314281288E+02
 -0.316867772229E+02 -0.115366167977E+02  0.226695252539E+02
 -0.237881779273E+02 -0.126182067288E+02  0.247226288324E+02
 -0.158949017013E+02 -0.132039601969E+02  0.257957648791E+02
 -0.801021057830E+01 -0.133252104164E+02  0.260134054432E+02
[...]
POINT_DATA       510
VECTORS displacement float 
    -1.90879467    -0.55522285     0.00000000
    -1.52908084    -0.77201632     0.00000000
    -1.17938148    -0.86498135     0.00000000
    -0.88862899    -0.84095988     0.00000000
    -0.61875338    -0.75938642     0.00000000
    -0.34821901    -0.60417285     0.00000000
    -0.04818128    -0.34671339     0.00000000
     0.00000000     0.00000000     0.00000000
     0.00000000     0.00000000     0.00000000
    -2.05632118    -0.44415580     0.00000000
    -2.20156084    -0.32541207     0.00000000
    -2.30450214    -0.21379901     0.00000000
    -2.36924419    -0.07432186     0.00000000
    -2.40486541     0.05696935     0.00000000
    -2.41210582     0.21968827     0.00000000
    -2.39070357     0.35112137     0.00000000
    -2.35610318     0.49653404     0.00000000
    -2.25863383     0.62886241     0.00000000
    -2.17211580     0.76717025     0.00000000
    -1.80685325     1.00338518     0.00000000
    -1.50579692     1.13329531     0.00000000
    -1.21307966     1.15016859     0.00000000
    -0.89338117     1.10407725     0.00000000
    -0.50885629     0.96408818     0.00000000
     0.01701942     0.49868698     0.00000000
     0.00000000     0.00000000     0.00000000
     0.00000000     0.00000000     0.00000000
    -1.90041659    -0.52928915     0.07850473
    -1.52579203    -0.76093932     0.11882982
    -1.17694518    -0.85221384     0.12262496
    -0.89217891    -0.83197917     0.11299931
    -0.62555856    -0.75404308     0.09141442
    -0.35383932    -0.60782595     0.06992521
    -0.04523800    -0.34751907     0.04117818
     0.00000000     0.00000000     0.00000000
     0.00000000     0.00000000     0.00000000
    -2.06681356    -0.46559987     0.09560349
    -2.20040650    -0.34491708     0.11587439
    -2.29725406    -0.22005574     0.13138040
    -2.35766539    -0.07459491     0.13917481
    -2.39415670     0.05860511     0.14355442
    -2.39823862     0.22000181     0.14298597
    -2.38161278     0.35494413     0.14143871
    -2.34616103     0.50281365     0.13770543
    -2.24589583     0.62397417     0.13419464
    -2.12798171     0.71359248     0.11539681
    -1.80862151     0.97364309     0.15667602
    -1.50145810     1.10333573     0.17424362
    -1.19897070     1.11778361     0.18513447
    -0.86721687     1.06243979     0.20216866
    -0.46917832     0.88938798     0.18748110
     0.01462492     0.43916014     0.11781144
     0.00000000     0.00000000     0.00000000
     0.00000000     0.00000000     0.00000000
    -1.89232013    -0.48954741     0.16490611
    -1.54095162    -0.75070643     0.24874202
    -1.19481430    -0.84130414     0.25956483
    -0.91713523    -0.83244508     0.23700545
    -0.64843210    -0.76510263     0.20084879
    -0.37438482    -0.62260267     0.15660627
    -0.05133771    -0.36654748     0.09375817
     0.00000000     0.00000000     0.00000000
     0.00000000     0.00000000     0.00000000
    -2.04244805    -0.48766447     0.21802849
    -2.18566518    -0.36791849     0.25459522
    -2.27451021    -0.22339471     0.27062924
    -2.32964856    -0.07571775     0.28562015
    -2.36358357     0.05900244     0.28762695
    -2.37278264     0.21895214     0.28902805
    -2.35879265     0.34796647     0.28520303
    -2.31041851     0.50285223     0.28919414
    -2.18413524     0.60014595     0.26249535
    -2.09662264     0.65052562     0.19645061
    -1.80876606     0.91987433     0.28672128
    -1.49484325     1.04721384     0.32702025
    -1.17403406     1.05885349     0.35187965
    -0.82363740     0.98820890     0.36559602
    -0.43746099     0.80008342     0.32083940
     0.00847598     0.38573474     0.18280574
     0.00000000     0.00000000     0.00000000
     0.00000000     0.00000000     0.00000000
    -1.88872401    -0.44699384     0.24915869
    -1.55889029    -0.71878379     0.37751769
    -1.21757544    -0.81240247     0.39567809
    -0.93833220    -0.81487471     0.36884879
    -0.66452561    -0.75660646     0.32262309
    -0.38598826    -0.61576696     0.25857217
    -0.05364006    -0.36998818     0.15689317
     0.00000000     0.00000000     0.00000000
     0.00000000     0.00000000     0.00000000
    -2.00713541    -0.43244502     0.32394909
    -2.12829061    -0.35256033     0.38756329
    -2.21524722    -0.23646457     0.42729722
    -2.27022243    -0.07938728     0.43336130
    -2.29559376     0.05165553     0.42887606
    -2.30552144     0.19485047     0.44400040
    -2.29017662     0.32925148     0.45470010
    -2.23628266     0.46318115     0.42317049
    -2.13142360     0.53540920     0.34556817
    -2.06938049     0.58962932     0.27019313
    -1.80274025     0.84701823     0.41585257
    -1.48265176     0.95764912     0.48981430
    -1.15124419     0.96436537     0.52650110
    -0.79134287     0.88799202     0.52519928
    -0.41764871     0.70636939     0.44013979
     0.00587608     0.34352962     0.23958315
     0.00000000     0.00000000     0.00000000
     0.00000000     0.00000000     0.00000000
    -1.89190014    -0.39623747     0.32716481
    -1.57754028    -0.66216730     0.49884608
    -1.24026971    -0.75864508     0.53254594
    -0.95461137    -0.77286632     0.50691377
    -0.67198216    -0.72227589     0.45137269
    -0.39076323    -0.58570683     0.36184872
    -0.05600241    -0.35794502     0.22084173
     0.00000000     0.00000000     0.00000000
     0.00000000     0.00000000     0.00000000
    -1.96140070    -0.35493308     0.40116866
    -2.01552789    -0.29054802     0.47114279
    -2.08363680    -0.22109770     0.54587004
    -2.14799772    -0.08112125     0.56166410
    -2.16210305     0.03419485     0.56392562
    -2.17610177     0.16009013     0.57723943
    -2.14304942     0.28271358     0.57315675
    -2.11900537     0.39334332     0.50753780
    -2.07277829     0.46389969     0.41353493
    -2.04804467     0.52943238     0.33976082
    -1.78796725     0.75901304     0.54179632
    -1.46462536     0.83933009     0.64260698
    -1.13308142     0.83324320     0.68728472
    -0.77506911     0.76211393     0.66835691
    -0.41184266     0.60859873     0.54518206
     0.00243503     0.30513734     0.29691013
     0.00000000     0.00000000     0.00000000
     0.00000000     0.00000000     0.00000000
    -1.89953896    -0.33949268     0.39564246
    -1.59501930    -0.58087807     0.61037920
    -1.26035736    -0.67583652     0.66467454
    -0.96632941    -0.69865129     0.64499433
    -0.67623861    -0.65830625     0.57721383
    -0.39372158    -0.53367189     0.45982967
    -0.05848644    -0.33442807     0.28366339
     0.00000000     0.00000000     0.00000000
     0.00000000     0.00000000     0.00000000
    -1.91373673    -0.27974312     0.45971337
    -1.61009633    -0.48022817     0.70649647
    -1.27590520    -0.56506868     0.78334316
    -0.97713412    -0.59277875     0.76898090
    -0.68248623    -0.56694417     0.68910333
    -0.39992846    -0.46540159     0.54681776
    -0.05952075    -0.29884143     0.34483980
     0.00000000     0.00000000     0.00000000
     0.00000000     0.00000000     0.00000000
    -1.93204018    -0.21536964     0.51949504
    -1.62136889    -0.36680990     0.78659701
    -1.28677722    -0.43388824     0.87919353
    -0.98817793    -0.46322785     0.86713959
    -0.69490170    -0.45690607     0.77826253
    -0.41021058    -0.38648118     0.61971950
    -0.06221941    -0.24633875     0.39794071
     0.00000000     0.00000000     0.00000000
     0.00000000     0.00000000     0.00000000
    -1.95954466    -0.14608059     0.57952632
    -1.62732005    -0.24474842     0.84814764
    -1.29372204    -0.29163723     0.94810432
    -1.00135460    -0.32388315     0.93248175
    -0.71433214    -0.33752896     0.84223464
    -0.42582166    -0.30204183     0.67827330
    -0.07452261    -0.18471927     0.42680930
     0.00000000     0.00000000     0.00000000
     0.00000000     0.00000000     0.00000000
    -1.99092263    -0.06672570     0.63860761
    -1.63076665    -0.11670127     0.88933747
    -1.30023409    -0.14926800     0.98851372
    -1.01715537    -0.18549571     0.96776624
    -0.73864823    -0.21878300     0.88252163
    -0.44751881    -0.20940076     0.72301560
    -0.08436503    -0.13569462     0.45850200
     0.00000000     0.00000000     0.00000000
     0.00000000     0.00000000     0.00000000
    -2.02516967     0.02200556     0.68712586
    -1.63541229     0.01578637     0.90929349
    -1.31034088    -0.01273362     1.00369233
    -1.03504927    -0.05559111     0.98114358
    -0.76405586    -0.10124822     0.90533055
    -0.46863481    -0.11071151     0.75713315
    -0.07447587    -0.07387008     0.49376522
     0.00000000     0.00000000     0.00000000
     0.00000000     0.00000000     0.00000000
    -2.02211045     0.12912902     0.65877132
    -1.65329914     0.14650061     0.90751737
    -1.32524073     0.11866649     0.99944935
    -1.05525743     0.06893700     0.98123288
    -0.78367651     0.01784977     0.91758336
    -0.47950768    -0.00031988     0.77834358
    -0.06407832     0.00202234     0.50718743
     0.00000000     0.00000000     0.00000000
     0.00000000     0.00000000     0.00000000
    -2.01658251     0.22672957     0.60563600
    -1.67821243     0.27805617     0.88484345
    -1.34860136     0.25142162     0.97850886
    -1.07461739     0.19734606     0.97274217
    -0.79403749     0.14748362     0.92007623
    -0.47518096     0.12107910     0.77911129
    -0.06181458     0.08215246     0.49266123
     0.00000000     0.00000000     0.00000000
     0.00000000     0.00000000     0.00000000
    -2.01674112     0.31791923     0.54827417
    -1.70801202     0.40887051     0.83530577
    -1.37749585     0.39327014     0.93937721
    -1.09283165     0.34069802     0.95061994
    -0.79173095     0.29360684     0.90643478
    -0.45958537     0.24916591     0.75573606
    -0.04960165     0.15158234     0.45668129
     0.00000000     0.00000000     0.00000000
     0.00000000     0.00000000     0.00000000
    -2.02127333     0.39690121     0.48066675
    -1.73825181     0.53767533     0.75960263
    -1.40970187     0.54432183     0.87308728
    -1.10671440     0.50330776     0.90292145
    -0.78287541     0.45232944     0.86367332
    -0.43635473     0.38087121     0.71126422
    -0.00932588     0.20334600     0.40530151
     0.00000000     0.00000000     0.00000000
     0.00000000     0.00000000     0.00000000
    -2.03257426     0.46687214     0.41144254
    -1.76590106     0.65557720     0.65865206
    -1.43888340     0.69776481     0.77381872
    -1.11964062     0.67364058     0.81600721
    -0.77300182     0.61350087     0.78427791
    -0.42061174     0.50202543     0.63751596
     0.00357804     0.25781229     0.35109948
     0.00000000     0.00000000     0.00000000
     0.00000000     0.00000000     0.00000000
    -1.70261098    -0.37422057     0.00000000
    -1.43422308    -0.40499102     0.00000000
    -1.07460070    -0.49123275     0.00000000
    -0.85307633    -0.51955044     0.00000000
    -0.67552346    -0.48947858     0.00000000
    -0.49782336    -0.40260921     0.00000000
    -0.29843091    -0.28172449     0.00000000
    -0.11600436    -0.09469477     0.00000000
     0.00000000     0.00000000     0.00000000
     0.00000000     0.00000000     0.00000000
    -1.70016473    -0.35962848     0.06775489
    -1.43161904    -0.40267087     0.08901804
    -1.09392461    -0.49517991     0.12534130
    -0.89592343    -0.53293148     0.12984219
    -0.72004718    -0.50442684     0.11407432
    -0.53100080    -0.41881958     0.08881789
    -0.31209108    -0.27980145     0.05195335
    -0.11846197    -0.07409703     0.00086749
     0.00000000     0.00000000     0.00000000
     0.00000000     0.00000000     0.00000000
    -1.70324327    -0.34290695     0.13580430
    -1.45129878    -0.40292799     0.16902924
    -1.12060588    -0.49392288     0.21685790
    -0.92358202    -0.53669463     0.21898269
    -0.74648534    -0.50682756     0.19010290
    -0.55462130    -0.42135631     0.14939035
    -0.33288457    -0.28299467     0.09454579
    -0.13016176    -0.07632799     0.01876758
     0.00000000     0.00000000     0.00000000
     0.00000000     0.00000000     0.00000000
    -1.70994764    -0.32064882     0.19911803
    -1.46976536    -0.38596462     0.23948638
    -1.14367026    -0.46971379     0.29378112
    -0.94217454    -0.51238025     0.29916981
    -0.76094042    -0.48688796     0.26319946
    -0.56501906    -0.40892442     0.20951033
    -0.34141744    -0.27978909     0.13919039
    -0.13672256    -0.07895253     0.03301341
     0.00000000     0.00000000     0.00000000
     0.00000000     0.00000000     0.00000000
    -1.72073570    -0.28963382     0.25896804
    -1.48792233    -0.35285869     0.30710291
    -1.16598450    -0.42521324     0.36725481
    -0.95656640    -0.46349672     0.37826803
    -0.76811093    -0.44634996     0.33787708
    -0.56776115    -0.38143989     0.27432340
    -0.34498249    -0.26898847     0.18797454
    -0.14107634    -0.08278205     0.05354575
     0.00000000     0.00000000     0.00000000
     0.00000000     0.00000000     0.00000000
    -1.73214020    -0.24854646     0.31422898
    -1.50488194    -0.30588274     0.36991211
    -1.18507220    -0.36350470     0.43715984
    -0.96805776    -0.39553901     0.45442514
    -0.77279640    -0.38752543     0.41304990
    -0.56910814    -0.34042946     0.33979377
    -0.34758014    -0.24900730     0.23812757
    -0.14692731    -0.08471975     0.07498502
     0.00000000     0.00000000     0.00000000
     0.00000000     0.00000000     0.00000000
    -1.74457244    -0.19966564     0.36384450
    -1.51762611    -0.24587056     0.42470845
    -1.19812128    -0.28873014     0.50212991
    -0.97784481    -0.31298327     0.52681529
    -0.77956065    -0.31500789     0.48490020
    -0.57462847    -0.28773901     0.40246805
    -0.35243959    -0.21973257     0.28398887
    -0.15450125    -0.08133355     0.09560431
     0.00000000     0.00000000     0.00000000
     0.00000000     0.00000000     0.00000000
    -1.75626265    -0.14437554     0.40640432
    -1.52591289    -0.17820506     0.47116898
    -1.20521431    -0.20356552     0.56131421
    -0.98855711    -0.22252426     0.59241092
    -0.79205590    -0.23478486     0.54945036
    -0.58850895    -0.22750111     0.45722229
    -0.36074434    -0.18424072     0.32170906
    -0.16317480    -0.07506436     0.11272972
     0.00000000     0.00000000     0.00000000
     0.00000000     0.00000000     0.00000000
    -1.77164101    -0.08579021     0.44353150
    -1.52850709    -0.10239510     0.50683921
    -1.21058059    -0.11491098     0.61235887
    -1.00286029    -0.12963011     0.64667187
    -0.81341613    -0.15473788     0.60196994
    -0.60936018    -0.16382255     0.49965209
    -0.37834078    -0.14539364     0.34992479
    -0.16699711    -0.07590200     0.12816768
     0.00000000     0.00000000     0.00000000
     0.00000000     0.00000000     0.00000000
    -1.78999147    -0.02072296     0.47472429
    -1.53000337    -0.02513052     0.52959664
    -1.21784749    -0.02416913     0.65078741
    -1.02302557    -0.04201890     0.68405400
    -0.84045000    -0.07704771     0.63841848
    -0.63662370    -0.10245292     0.52706596
    -0.39830801    -0.10191971     0.36808312
    -0.18620714    -0.07390676     0.13654565
     0.00000000     0.00000000     0.00000000
     0.00000000     0.00000000     0.00000000
    -1.80486309     0.04871030     0.49106273
    -1.53287520     0.05735535     0.53868718
    -1.23052394     0.06311210     0.66958329
    -1.04594460     0.03982213     0.70185862
    -0.86780747    -0.00351737     0.65528175
    -0.66364896    -0.04089161     0.53989204
    -0.41314055    -0.05676351     0.37278002
    -0.20306769    -0.05859540     0.13699361
     0.00000000     0.00000000     0.00000000
     0.00000000     0.00000000     0.00000000
    -1.81393285     0.12437082     0.48363202
    -1.55098161     0.13337177     0.53725820
    -1.24784837     0.14795144     0.66369806
    -1.06596079     0.11807952     0.69857916
    -0.88977299     0.06882756     0.65259466
    -0.67982364     0.02237472     0.53739572
    -0.41946405    -0.00840413     0.36709462
    -0.20309550    -0.03649324     0.13379420
     0.00000000     0.00000000     0.00000000
     0.00000000     0.00000000     0.00000000
    -1.82093771     0.19464389     0.45774356
    -1.57635484     0.21024586     0.52276312
    -1.26832177     0.22759889     0.63404201
    -1.08149969     0.19781768     0.67259877
    -0.89998204     0.14274535     0.63052410
    -0.68151751     0.08967028     0.52059785
    -0.41428219     0.04463673     0.35402098
    -0.19004495    -0.01344796     0.12772722
     0.00000000     0.00000000     0.00000000
     0.00000000     0.00000000     0.00000000
    -1.83438189     0.26338106     0.42260939
    -1.60274776     0.28345039     0.48820594
    -1.29308302     0.30685778     0.58403318
    -1.09285745     0.28028601     0.62246168
    -0.89978944     0.22203672     0.58846806
    -0.66851786     0.16087407     0.49007447
    -0.39972386     0.10613966     0.33431804
    -0.17939832     0.01174385     0.11487471
     0.00000000     0.00000000     0.00000000
     0.00000000     0.00000000     0.00000000
    -1.85014821     0.32585048     0.37569700
    -1.63199798     0.35678544     0.43903388
    -1.32044145     0.38568787     0.51546067
    -1.10389859     0.36633117     0.55021331
    -0.89288362     0.30721615     0.52539256
    -0.65023721     0.23708498     0.44510357
    -0.37453150     0.17145704     0.31133139
    -0.20572450     0.05017820     0.10785714
     0.00000000     0.00000000     0.00000000
     0.00000000     0.00000000     0.00000000
    -1.86894856     0.38361366     0.32206261
    -1.65890625     0.42456373     0.37547675
    -1.34817297     0.46422726     0.43358194
    -1.11569714     0.45493662     0.45925424
    -0.88756174     0.39663744     0.44383143
    -0.63529172     0.31781465     0.38406805
    -0.35793179     0.22888111     0.27958101
    -0.19775846     0.07409106     0.09974296
     0.00000000     0.00000000     0.00000000
     0.00000000     0.00000000     0.00000000
    -1.88507603     0.43484558     0.26418448
    -1.68094009     0.48457127     0.30481307
    -1.37071774     0.54108970     0.34230511
    -1.12822922     0.54416686     0.35559383
    -0.89174637     0.48812995     0.34748030
    -0.63165413     0.39569750     0.30874140
    -0.35362014     0.27970984     0.23213443
    -0.18250965     0.07980084     0.08295927
     0.00000000     0.00000000     0.00000000
     0.00000000     0.00000000     0.00000000
    -1.90132271     0.48118575     0.20513479
    -1.69317076     0.53646289     0.22856537
    -1.38574010     0.61607564     0.24612583
    -1.14465076     0.63151896     0.24652339
    -0.90917203     0.57681525     0.24324954
    -0.64550976     0.46668268     0.22279629
    -0.35959755     0.32084346     0.17328244
    -0.18115185     0.08534702     0.06368783
     0.00000000     0.00000000     0.00000000
     0.00000000     0.00000000     0.00000000
    -1.91458968     0.52069278     0.14053082
    -1.69683076     0.57952261     0.14923247
    -1.39616000     0.68654263     0.14938942
    -1.16731605     0.71211344     0.13940717
    -0.94158282     0.65725043     0.13989459
    -0.67557078     0.52891730     0.13164807
    -0.37821078     0.35339870     0.10561697
    -0.18704348     0.08849527     0.04075083
     0.00000000     0.00000000     0.00000000
     0.00000000     0.00000000     0.00000000