# vtk DataFile Version 3.0
Example VTK
ASCII
DATASET UNSTRUCTURED_GRID
POINTS   510 float
 -0.474951653569E+02 -0.155732671522E+02  0.000000000000E+00
 -0.395069607986E+02 -0.216027984201E+02  0.000000000000E+00
 -0.315560254361E+02 -0.253356668858E+02  0.000000000000E+00
 -0.236653844993E+02 -0.276231248052E+02  0.000000000000E+00
 -0.158015129407E+02 -0.288398926660E+02  0.000000000000E+00
 -0.793757496157E+01 -0.291024599752E+02  0.000000000000E+00
 -0.481757416165E-01 -0.284205293284E+02  0.000000000000E+00
  0.485806477600E+01 -0.266469127900E+02  0.000000000000E+00
  0.971612955200E+01 -0.247938255800E+02  0.000000000000E+00
 -0.500438777946E+02 -0.124592007985E+02  0.000000000000E+00
 -0.509957807208E+02 -0.933879925697E+01  0.000000000000E+00
 -0.515657243245E+02 -0.621935222938E+01  0.000000000000E+00
 -0.518876670245E+02 -0.308042182132E+01  0.000000000000E+00
 -0.520039686794E+02  0.630406109465E-01  0.000000000000E+00
 -0.519297495888E+02  0.322398514693E+01  0.000000000000E+00
 -0.516547535500E+02  0.637067593124E+01  0.000000000000E+00
 -0.511488069279E+02  0.951411776220E+01  0.000000000000E+00
 -0.502507093311E+02  0.126545222600E+02  0.000000000000E+00
 -0.477534186538E+02  0.157922828020E+02  0.000000000000E+00
 -0.397808809885E+02  0.218430261930E+02  0.000000000000E+00
 -0.318717803004E+02  0.256047887162E+02  0.000000000000E+00
 -0.239827000533E+02  0.279312973799E+02  0.000000000000E+00
 -0.160627725420E+02  0.291784258665E+02  0.000000000000E+00
 -0.809064926880E+01  0.294511657694E+02  0.000000000000E+00
  0.215090258293E-01  0.285646493685E+02  0.000000000000E+00
  0.371063367600E+01  0.266469127900E+02  0.000000000000E+00
  0.742126735300E+01  0.247938255800E+02  0.000000000000E+00
 -0.481036476209E+02 -0.153632457687E+02  0.242768185523E+01
 -0.395020482572E+02 -0.213360171774E+02  0.337838475146E+01
 -0.315515186736E+02 -0.250219038703E+02  0.395187477386E+01
 -0.236668472277E+02 -0.272843271495E+02  0.430396379872E+01
 -0.158062397891E+02 -0.284887709766E+02  0.448522899287E+01
 -0.794088945618E+01 -0.287551054636E+02  0.452885600405E+01
 -0.429396045897E-01 -0.280754930282E+02  0.443324805243E+01
  0.487577938100E+01 -0.263526544000E+02  0.396427664200E+01
  0.974471668600E+01 -0.245950934400E+02  0.257295191300E+01
 -0.500460769356E+02 -0.124000971856E+02  0.270618834462E+01
 -0.509422386089E+02 -0.933776888026E+01  0.292833241020E+01
 -0.514864409656E+02 -0.623119948864E+01  0.307971115476E+01
 -0.517954478494E+02 -0.308952680750E+01  0.315202585867E+01
 -0.519118780701E+02  0.652810777837E-01  0.314895371345E+01
 -0.518358337005E+02  0.323115176436E+01  0.315731399310E+01
 -0.515741748368E+02  0.637843158474E+01  0.308926836245E+01
 -0.510870836810E+02  0.949818757340E+01  0.295061709436E+01
 -0.502305795728E+02  0.125682863896E+02  0.274599086873E+01
 -0.483275139141E+02  0.155520104271E+02  0.246472292182E+01
 -0.397840163961E+02  0.215560606995E+02  0.341575029727E+01
 -0.318687878038E+02  0.252738065814E+02  0.400052942674E+01
 -0.239693485057E+02  0.275695988139E+02  0.437341187039E+01
 -0.160380784876E+02  0.287916354292E+02  0.459258635599E+01
 -0.805245545293E+01  0.290273282376E+02  0.464263713548E+01
  0.168812362472E-01  0.281611558630E+02  0.450697777581E+01
  0.373898642700E+01  0.263356989800E+02  0.400177498900E+01
  0.746269299800E+01  0.245641965300E+02  0.298701071100E+01
 -0.486530708010E+02 -0.147728618514E+02  0.480610759572E+01
 -0.395172945287E+02 -0.205623135994E+02  0.668745720443E+01
 -0.315696486620E+02 -0.241135392698E+02  0.782316001423E+01
 -0.236921031838E+02 -0.263023803944E+02  0.851477565940E+01
 -0.158295651257E+02 -0.274701276713E+02  0.887962142825E+01
 -0.796116401137E+01 -0.277250504605E+02  0.896432725935E+01
 -0.494287828444E-01 -0.270655882349E+02  0.876960437139E+01
  0.492848700300E+01 -0.254771248200E+02  0.783093963700E+01
  0.982977417800E+01 -0.240037904700E+02  0.508254921200E+01
 -0.500257781849E+02 -0.120477744879E+02  0.539382946122E+01
 -0.507975638733E+02 -0.912101550683E+01  0.584594389095E+01
 -0.512571918181E+02 -0.609201865853E+01  0.614429041281E+01
 -0.515213413147E+02 -0.302664904506E+01  0.630128686852E+01
 -0.516266742478E+02  0.660483918187E-01  0.629843535620E+01
 -0.515641785696E+02  0.316484440544E+01  0.630471493268E+01
 -0.513450114299E+02  0.623046561419E+01  0.616058351914E+01
 -0.509193291297E+02  0.925741684121E+01  0.588217434920E+01
 -0.501730549887E+02  0.121718788553E+02  0.544237077639E+01
 -0.488530244224E+02  0.149378556756E+02  0.483699187653E+01
 -0.397843864352E+02  0.207394792340E+02  0.672421894369E+01
 -0.318617143168E+02  0.243227897149E+02  0.788674454400E+01
 -0.239437992870E+02  0.265312650255E+02  0.862583690978E+01
 -0.159937650742E+02  0.276904715196E+02  0.903939446716E+01
 -0.802072692933E+01  0.278958082420E+02  0.912248561120E+01
  0.114328175434E-01  0.270800123531E+02  0.885443831983E+01
  0.382334654000E+01  0.254097206600E+02  0.790501299700E+01
  0.758594989700E+01  0.238809636100E+02  0.590047130500E+01
 -0.490915890486E+02 -0.138279179239E+02  0.706823316259E+01
 -0.395355597444E+02 -0.192791422079E+02  0.983683745949E+01
 -0.315922782695E+02 -0.226141973705E+02  0.115073106507E+02
 -0.237136201834E+02 -0.246754885466E+02  0.125296100773E+02
 -0.158453780613E+02 -0.257744417869E+02  0.130727734323E+02
 -0.797263373739E+01 -0.260060553156E+02  0.131981167226E+02
 -0.513420955647E-01 -0.253825103859E+02  0.129028880892E+02
  0.501488980600E+01 -0.240418825200E+02  0.115047789100E+02
  0.996920763000E+01 -0.230344765000E+02  0.746699728000E+01
 -0.499589322528E+02 -0.113360436614E+02  0.797270861622E+01
 -0.504992590759E+02 -0.865268177796E+01  0.868911268119E+01
 -0.508245394122E+02 -0.582353176296E+01  0.918074429583E+01
 -0.510126568097E+02 -0.289408266980E+01  0.942832311648E+01
 -0.510898026351E+02  0.575087564985E-01  0.944463106808E+01
 -0.510475922885E+02  0.300583671767E+01  0.943733574552E+01
 -0.509023574161E+02  0.592826965376E+01  0.920907268102E+01
 -0.506032126647E+02  0.876462436225E+01  0.872245793401E+01
 -0.500878980684E+02  0.114491936434E+02  0.799664332846E+01
 -0.492681246032E+02  0.139748057621E+02  0.708732874845E+01
 -0.397781950343E+02  0.194156346696E+02  0.987383771745E+01
 -0.318499899211E+02  0.227649452452E+02  0.115968672278E+02
 -0.239202635334E+02  0.248299798594E+02  0.126828282097E+02
 -0.159619922267E+02  0.259059542929E+02  0.132685408405E+02
 -0.800004122017E+01  0.260928691232E+02  0.133716881003E+02
  0.796349555345E-02  0.253532026122E+02  0.129799831859E+02
  0.396163679000E+01  0.238917785000E+02  0.116136033500E+02
  0.778800305500E+01  0.227609502700E+02  0.866864271200E+01
 -0.493782762896E+02 -0.125450534217E+02  0.915589809345E+01
 -0.395544910402E+02 -0.175141143890E+02  0.127459291804E+02
 -0.316147724578E+02 -0.205530903512E+02  0.149183989080E+02
 -0.237299074231E+02 -0.224367295398E+02  0.162512555163E+02
 -0.158523585089E+02 -0.234366769749E+02  0.169588378500E+02
 -0.797707949935E+01 -0.236384197834E+02  0.171145811531E+02
 -0.534929799701E-01 -0.230678609247E+02  0.167229408075E+02
  0.513286026600E+01 -0.220822679200E+02  0.148953323400E+02
  0.101595837300E+02 -0.217110192700E+02  0.966758309400E+01
 -0.497759901138E+02 -0.103380884360E+02  0.103879957172E+02
 -0.499715577591E+02 -0.793957895094E+01  0.113805628813E+02
 -0.500669253479E+02 -0.539322831736E+01  0.121092719374E+02
 -0.501303839662E+02 -0.269367537340E+01  0.125011971988E+02
 -0.501512360674E+02  0.391600104483E-01  0.125832852956E+02
 -0.501577176026E+02  0.277010164106E+01  0.125156228024E+02
 -0.501315076391E+02  0.546554197833E+01  0.121412977109E+02
 -0.500720615844E+02  0.804469874212E+01  0.114151208509E+02
 -0.498958493284E+02  0.104588395197E+02  0.104057185379E+02
 -0.495312991869E+02  0.126832687437E+02  0.916642988575E+01
 -0.397632531746E+02  0.176193389226E+02  0.127871300499E+02
 -0.318321434106E+02  0.206411471232E+02  0.150242585132E+02
 -0.239020960158E+02  0.225040000901E+02  0.164264942878E+02
 -0.159457125864E+02  0.234797275438E+02  0.171681358081E+02
 -0.799429866077E+01  0.236607428873E+02  0.172883711591E+02
  0.542894419217E-02  0.230142119899E+02  0.167924750716E+02
  0.415045201100E+01  0.218192492600E+02  0.150362282400E+02
  0.806387725500E+01  0.212317349700E+02  0.112233633700E+02
 -0.494832644541E+02 -0.109571278175E+02  0.110165502554E+02
 -0.395722460696E+02 -0.153093202697E+02  0.153434491469E+02
 -0.316343429413E+02 -0.179756269210E+02  0.179703990441E+02
 -0.237416926652E+02 -0.196324086818E+02  0.195851356942E+02
 -0.158557071537E+02 -0.205099610349E+02  0.204352882071E+02
 -0.797990001123E+01 -0.206810162198E+02  0.206129150666E+02
 -0.554277173441E-01 -0.201825258075E+02  0.201353433404E+02
  0.527949355900E+01 -0.196465332300E+02  0.179191132600E+02
  0.103962147800E+02 -0.200660066800E+02  0.116301209300E+02
 -0.493989063395E+02 -0.910476707844E+01  0.126109878567E+02
 -0.395871137142E+02 -0.127226865242E+02  0.175627336449E+02
 -0.316493967896E+02 -0.149443244573E+02  0.205826202644E+02
 -0.237517248615E+02 -0.163302876148E+02  0.224383786907E+02
 -0.158609545288E+02 -0.170669708399E+02  0.234084215069E+02
 -0.798535068230E+01 -0.172112459859E+02  0.236035632763E+02
 -0.563256271388E-01 -0.167962006692E+02  0.230568724695E+02
  0.545708352200E+01 -0.166965753800E+02  0.205768184200E+02
  0.107782649500E+02 -0.174100689700E+02  0.138160665800E+02
 -0.491338594759E+02 -0.703158514185E+01  0.139029603012E+02
 -0.395977419489E+02 -0.982155731943E+01  0.193505728212E+02
 -0.316596120576E+02 -0.115389991335E+02  0.226845831184E+02
 -0.237618006720E+02 -0.126168755424E+02  0.247318969215E+02
 -0.158724433304E+02 -0.131994238218E+02  0.257991284249E+02
 -0.799457172198E+01 -0.133185241713E+02  0.260119033275E+02
[...]
POINT_DATA       510
VECTORS displacement float 
    -1.89516536    -0.57326715     0.00000000
    -1.50696080    -0.78944788     0.00000000
    -1.15602544    -0.87980587     0.00000000
    -0.86538450    -0.84948332     0.00000000
    -0.60151294    -0.76209338     0.00000000
    -0.33757496    -0.60245998     0.00000000
    -0.04817574    -0.34273004     0.00000000
     0.00000000     0.00000000     0.00000000
     0.00000000     0.00000000     0.00000000
    -2.04387779    -0.45920080     0.00000000
    -2.19578072    -0.33879926     0.00000000
    -2.29966376    -0.21935223     0.00000000
    -2.36848343    -0.08042182     0.00000000
    -2.40396868     0.06304061     0.00000000
    -2.41056600     0.22398515     0.00000000
    -2.38869299     0.37067593     0.00000000
    -2.34880693     0.51411776     0.00000000
    -2.25070933     0.65452226     0.00000000
    -2.15341865     0.79228280     0.00000000
    -1.78088099     1.02967565     0.00000000
    -1.47178030     1.14892770     0.00000000
    -1.18270005     1.15765589     0.00000000
    -0.86277254     1.10062658     0.00000000
    -0.49064927     0.95116577     0.00000000
     0.02150903     0.48685008     0.00000000
     0.00000000     0.00000000     0.00000000
     0.00000000     0.00000000     0.00000000
    -1.88561363    -0.54792066     0.08116488
    -1.50204826    -0.77891352     0.12245939
    -1.15151867    -0.86713509     0.12613524
    -0.86684723    -0.84031362     0.11564352
    -0.60623979    -0.75665600     0.09289348
    -0.34088946    -0.60598775     0.07047375
    -0.04293960    -0.34337805     0.04091254
     0.00000000     0.00000000     0.00000000
     0.00000000     0.00000000     0.00000000
    -2.05435826    -0.48153762     0.09898006
    -2.19457368    -0.35939452     0.12019486
    -2.29217771    -0.22654660     0.13646295
    -2.35631348    -0.08142246     0.14392151
    -2.39269448     0.06528108     0.14895371
    -2.39669933     0.22304742     0.14920965
    -2.37991158     0.37377870     0.14602016
    -2.33941875     0.51981322     0.14247954
    -2.23886089     0.64972682     0.13878258
    -2.10947992     0.73668532     0.11820595
    -1.78401640     0.99895704     0.15982494
    -1.46878780     1.11903780     0.17478989
    -1.16934851     1.12558528     0.18509159
    -0.83807849     1.05952045     0.20025084
    -0.45245545     0.87821053     0.18425488
     0.01688124     0.42904088     0.11464226
     0.00000000     0.00000000     0.00000000
     0.00000000     0.00000000     0.00000000
    -1.87750030    -0.50701411     0.17085268
    -1.51729453    -0.76764094     0.25577818
    -1.16964866    -0.85463329     0.26588335
    -0.89210318    -0.83913419     0.24126544
    -0.62956513    -0.76655370     0.20310428
    -0.36116401    -0.61993975     0.15734292
    -0.04942878    -0.36201426     0.09308723
     0.00000000     0.00000000     0.00000000
     0.00000000     0.00000000     0.00000000
    -2.02844788    -0.50249733     0.22563611
    -2.17978445    -0.38314827     0.26433621
    -2.26837904    -0.22863387     0.28090562
    -2.32707805    -0.08340084     0.29663398
    -2.36061369     0.06604839     0.29843536
    -2.36991531     0.22159620     0.30006204
    -2.35619865     0.36708083     0.29719873
    -2.30154971     0.51954961     0.30056667
    -2.17572469     0.62660170     0.27417743
    -2.07745392     0.67200794     0.20173696
    -1.78438644     0.94480657     0.29253992
    -1.46171432     1.06388373     0.32946788
    -1.14379929     1.06801883     0.35232669
    -0.79376507     0.98689755     0.36287732
    -0.42072693     0.79069753     0.31550127
     0.01143282     0.37643838     0.17792118
     0.00000000     0.00000000     0.00000000
     0.00000000     0.00000000     0.00000000
    -1.87355506    -0.46282006     0.25837567
    -1.53555974    -0.73431109     0.38777405
    -1.19227827    -0.82386565     0.40458209
    -0.91362018    -0.81999931     0.37463120
    -0.64537806    -0.75693944     0.32571930
    -0.37263374    -0.61236938     0.25938748
    -0.05134210    -0.36500804     0.15583396
     0.00000000     0.00000000     0.00000000
     0.00000000     0.00000000     0.00000000
    -1.99170196    -0.44506692     0.33483849
    -2.12001789    -0.36608518     0.40251608
    -2.20675999    -0.24192408     0.44287706
    -2.26499188    -0.08594512     0.44994876
    -2.28980264     0.05750876     0.44463107
    -2.29992736     0.19769917     0.45896139
    -2.28457800     0.34666197     0.47120545
    -2.22397147     0.47802777     0.43586134
    -2.12066778     0.55821690     0.35877321
    -2.05009061     0.60970790     0.27747125
    -1.77819503     0.87080355     0.42477430
    -1.44998992     0.97461353     0.49413867
    -1.12026353     0.97449062     0.52784933
    -0.76199223     0.88845194     0.52148671
    -0.40004122     0.69918318     0.43295886
     0.00796350     0.33570026     0.23292906
     0.00000000     0.00000000     0.00000000
     0.00000000     0.00000000     0.00000000
    -1.87616326    -0.40979850     0.33911931
    -1.55449104    -0.67576009     0.51214868
    -1.21477246    -0.76788318     0.54360447
    -0.92990742    -0.77639857     0.51410390
    -0.65235851    -0.72126018     0.45512151
    -0.37707950    -0.58143544     0.36270146
    -0.05349298    -0.35244413     0.21922447
     0.00000000     0.00000000     0.00000000
     0.00000000     0.00000000     0.00000000
    -1.94432335    -0.36468657     0.41459386
    -2.00432747    -0.30170883     0.48958614
    -2.06959505    -0.22503497     0.56399478
    -2.13866529    -0.08646708     0.58263763
    -2.15123607     0.03916001     0.58328530
    -2.16599892     0.16289335     0.59706323
    -2.13417734     0.29734863     0.59602055
    -2.10483129     0.40682862     0.52414411
    -2.06418257     0.48543766     0.43231668
    -2.02918616     0.54801382     0.34965110
    -1.76325317     0.78098462     0.55334955
    -1.43214341     0.85593995     0.64946407
    -1.10209602     0.84366912     0.68934267
    -0.74571259     0.76431075     0.66441947
    -0.39429866     0.60375855     0.53649147
     0.00542894     0.29879520     0.28875873
     0.00000000     0.00000000     0.00000000
     0.00000000     0.00000000     0.00000000
    -1.88326445    -0.35052610     0.40994854
    -1.57224607    -0.59205896     0.62618784
    -1.23434294    -0.68272176     0.67749388
    -0.94169267    -0.70058523     0.65331224
    -0.65570715    -0.65595875     0.58128593
    -0.37990001    -0.52847296     0.46037181
    -0.05542772    -0.32852353     0.28134106
     0.00000000     0.00000000     0.00000000
     0.00000000     0.00000000     0.00000000
    -1.89679331    -0.28798829     0.47573294
    -1.58711371    -0.48890602     0.72437934
    -1.24939679    -0.56953002     0.79741309
    -0.95172486    -0.59313599     0.77804772
    -0.66095453    -0.56325450     0.69300472
    -0.38535068    -0.45936630     0.54657894
    -0.05632563    -0.29248433     0.34145568
     0.00000000     0.00000000     0.00000000
     0.00000000     0.00000000     0.00000000
    -1.91582549    -0.22172765     0.53786244
    -1.59774195    -0.37249391     0.80574170
    -1.25961206    -0.43627057     0.89425140
    -0.96180067    -0.46189666     0.87640768
    -0.67244333    -0.45236969     0.78162607
    -0.39457172    -0.37979493     0.61821739
    -0.05888679    -0.24021993     0.39312315
     0.00000000     0.00000000     0.00000000
     0.00000000     0.00000000     0.00000000
    -1.94283496    -0.14919876     0.59879469
    -1.60318530    -0.24799364     0.86840932
    -1.26577808    -0.29169885     0.96365805
    -0.97402407    -0.32119713     0.94155451
    -0.69067847    -0.33224409     0.84473328
    -0.40939047    -0.29539146     0.67535134
    -0.07015877    -0.17914292     0.42070737
     0.00000000     0.00000000     0.00000000
     0.00000000     0.00000000     0.00000000
    -1.97480418    -0.06871407     0.65987053
    -1.60590554    -0.11652470     0.91008877
    -1.27150538    -0.14733319     1.00421838
    -0.98870743    -0.18140466     0.97632910
    -0.71415004    -0.21315719     0.88396307
    -0.42993282    -0.20311104     0.71871250
    -0.08005506    -0.13103418     0.45105242
     0.00000000     0.00000000     0.00000000
     0.00000000     0.00000000     0.00000000
    -2.00946358     0.02495134     0.70875975
    -1.61010092     0.01830383     0.93044734
    -1.28071550    -0.00834499     1.01910460
    -1.00585613    -0.05047944     0.98906622
    -0.73842175    -0.09532456     0.90563270
    -0.45061417    -0.10519147     0.75154452
    -0.06969777    -0.07030605     0.48491829
     0.00000000     0.00000000     0.00000000
     0.00000000     0.00000000     0.00000000
    -2.00552784     0.13327286     0.67942187
    -1.62804697     0.15302537     0.92872162
    -1.29476695     0.12502653     1.01419759
    -1.02546614     0.07536224     0.98852375
    -0.75705713     0.02367057     0.91672680
    -0.46092274     0.00429276     0.77152658
    -0.06048603     0.00421056     0.49745782
     0.00000000     0.00000000     0.00000000
     0.00000000     0.00000000     0.00000000
    -1.99955265     0.23595200     0.62478470
    -1.65315674     0.28740244     0.90552960
    -1.31723950     0.26040818     0.99231881
    -1.04461237     0.20476979     0.97929493
    -0.76627103     0.15326385     0.91817806
    -0.45686863     0.12427200     0.77127156
    -0.05696172     0.08252422     0.48212988
     0.00000000     0.00000000     0.00000000
     0.00000000     0.00000000     0.00000000
    -1.99864286     0.32909137     0.56506934
    -1.68299019     0.42236142     0.85469154
    -1.34603574     0.40431588     0.95193602
    -1.06208387     0.34955225     0.95624710
    -0.76373579     0.29876124     0.90363149
    -0.44065151     0.25092005     0.74710637
    -0.04641195     0.14996114     0.44640111
     0.00000000     0.00000000     0.00000000
     0.00000000     0.00000000     0.00000000
    -2.00376390     0.41176372     0.49588266
    -1.71304046     0.55405724     0.77660225
    -1.37794220     0.55800362     0.88426397
    -1.07567551     0.51280544     0.90724711
    -0.75441501     0.45705397     0.86028501
    -0.41793418     0.38041036     0.70197035
    -0.00616741     0.20056147     0.39565502
     0.00000000     0.00000000     0.00000000
     0.00000000     0.00000000     0.00000000
    -2.01385742     0.48340284     0.42353482
    -1.74086763     0.67531199     0.67331219
    -1.40735514     0.71304255     0.78276150
    -1.08807453     0.68400438     0.81936446
    -0.74500144     0.61700111     0.78029007
    -0.40190570     0.49964213     0.62844208
     0.00469890     0.25339768     0.34214249
     0.00000000     0.00000000     0.00000000
     0.00000000     0.00000000     0.00000000
    -1.68213182    -0.38937631     0.00000000
    -1.40742985    -0.41867851     0.00000000
    -1.04609173    -0.50562486     0.00000000
    -0.82531101    -0.53145196     0.00000000
    -0.65237361    -0.50016998     0.00000000
    -0.47891884    -0.41034197     0.00000000
    -0.28622203    -0.28680865     0.00000000
    -0.10962481    -0.09797884     0.00000000
     0.00000000     0.00000000     0.00000000
     0.00000000     0.00000000     0.00000000
    -1.68024019    -0.37385476     0.07068143
    -1.40575271    -0.41479920     0.09223493
    -1.06717908    -0.50816065     0.12860369
    -0.87041263    -0.54325531     0.13180533
    -0.69922157    -0.51321887     0.11456411
    -0.51414172    -0.42483679     0.08862888
    -0.30214954    -0.28427745     0.05207599
    -0.11446088    -0.07825558     0.00156057
     0.00000000     0.00000000     0.00000000
     0.00000000     0.00000000     0.00000000
    -1.68342319    -0.35645463     0.14149481
    -1.42549851    -0.41444057     0.17487582
    -1.09409015    -0.50598760     0.22313682
    -0.89825467    -0.54583373     0.22335832
    -0.72589877    -0.51402136     0.19257017
    -0.53742811    -0.42576962     0.15058430
    -0.32256641    -0.28635872     0.09543238
    -0.12551549    -0.07983816     0.02013539
     0.00000000     0.00000000     0.00000000
     0.00000000     0.00000000     0.00000000
    -1.69009360    -0.33300656     0.20760364
    -1.44413694    -0.39632382     0.24776156
    -1.11704736    -0.48013434     0.30260402
    -0.91698893    -0.52002528     0.30581393
    -0.74016897    -0.49236439     0.26760333
    -0.54769992    -0.41188032     0.21209986
    -0.33075797    -0.28196130     0.14111147
    -0.13199503    -0.08184583     0.03508606
     0.00000000     0.00000000     0.00000000
     0.00000000     0.00000000     0.00000000
    -1.70052704    -0.30007417     0.26982778
    -1.46271214    -0.36184778     0.31773269
    -1.13920816    -0.43353614     0.37827790
    -0.93146331    -0.46957790     0.38697932
    -0.74681263    -0.45016207     0.34398743
    -0.55023324    -0.38315488     0.27828799
    -0.33377715    -0.27006704     0.19081853
    -0.13629692    -0.08497478     0.05636011
     0.00000000     0.00000000     0.00000000
     0.00000000     0.00000000     0.00000000
    -1.71160145    -0.25683044     0.32691850
    -1.47999708    -0.31314590     0.38261233
    -1.15815911    -0.36968728     0.44989305
    -0.94288935    -0.39997760     0.46483124
    -0.75070895    -0.38974812     0.42047265
    -0.55117891    -0.34100455     0.34485804
    -0.33566589    -0.24900131     0.24174824
    -0.14206062    -0.08605659     0.07837880
     0.00000000     0.00000000     0.00000000
     0.00000000     0.00000000     0.00000000
    -1.72333027    -0.20539546     0.37771721
    -1.49301868    -0.25155999     0.43912239
    -1.17096208    -0.29285242     0.51606339
    -0.95233623    -0.31576989     0.53845299
    -0.75662401    -0.31594553     0.49314926
    -0.55607680    -0.28729125     0.40825816
    -0.33983591    -0.21883502     0.28803587
    -0.14923811    -0.08188503     0.09944677
     0.00000000     0.00000000     0.00000000
     0.00000000     0.00000000     0.00000000
    -1.73587043    -0.14868115     0.42212225
    -1.50067967    -0.18142654     0.48640406
    -1.17781486    -0.20600023     0.57623458
    -0.96223060    -0.22369336     0.60463803
    -0.76848549    -0.23460069     0.55817344
    -0.56885454    -0.22617860     0.46313600
    -0.34770206    -0.18254447     0.32591603
    -0.15715972    -0.07480080     0.11684431
     0.00000000     0.00000000     0.00000000
     0.00000000     0.00000000     0.00000000
    -1.75061284    -0.08731097     0.45976312
    -1.50328409    -0.10426475     0.52314205
    -1.18235939    -0.11525759     0.62775084
    -0.97600260    -0.12927876     0.65914304
    -0.78880344    -0.15354982     0.61065884
    -0.58906936    -0.16177940     0.50534630
    -0.36422958    -0.14302444     0.35378913
    -0.16110977    -0.07476427     0.13243127
     0.00000000     0.00000000     0.00000000
     0.00000000     0.00000000     0.00000000
    -1.76894521    -0.02079256     0.49163782
    -1.50394584    -0.02379944     0.54582981
    -1.18903818    -0.02282013     0.66642091
    -0.99529896    -0.04017504     0.69632906
    -0.81522257    -0.07486147     0.64674209
    -0.61533182    -0.09975926     0.53219823
    -0.38370094    -0.09909775     0.37133876
    -0.17912704    -0.07178785     0.14075690
     0.00000000     0.00000000     0.00000000
     0.00000000     0.00000000     0.00000000
    -1.78359758     0.05169895     0.50781035
    -1.50609540     0.05965171     0.55491637
    -1.20083747     0.06704005     0.68480793
    -1.01763354     0.04318378     0.71374203
    -0.84172110    -0.00026913     0.66285192
    -0.64172371    -0.03757880     0.54434646
    -0.39782931    -0.05347415     0.37542521
    -0.19606224    -0.05611036     0.14083744
     0.00000000     0.00000000     0.00000000
     0.00000000     0.00000000     0.00000000
    -1.79182806     0.12964803     0.49933428
    -1.52427326     0.13993374     0.55286923
    -1.21709935     0.15377241     0.67799033
    -1.03716902     0.12324918     0.70990452
    -0.86269022     0.07326410     0.65914569
    -0.65748823     0.02638010     0.54118292
    -0.40367642    -0.00479465     0.36923132
    -0.19584512    -0.03347815     0.13738763
     0.00000000     0.00000000     0.00000000
     0.00000000     0.00000000     0.00000000
    -1.79832575     0.20277771     0.47233341
    -1.54916610     0.21810089     0.53767138
    -1.23677394     0.23618755     0.64697169
    -1.05211950     0.20497142     0.68306125
    -0.87205068     0.14847456     0.63606943
    -0.65877080     0.09442041     0.52370163
    -0.39810147     0.04857055     0.35581017
    -0.18387030    -0.01012847     0.13134118
     0.00000000     0.00000000     0.00000000
     0.00000000     0.00000000     0.00000000
    -1.81113002     0.27352562     0.43545453
    -1.57584658     0.29482320     0.50187074
    -1.26092120     0.31746055     0.59541771
    -1.06282912     0.28969332     0.63175075
    -0.87119031     0.22900297     0.59314827
    -0.64540835     0.16645091     0.49253510
    -0.38366667     0.11005843     0.33589237
    -0.17318883     0.01525927     0.11851205
     0.00000000     0.00000000     0.00000000
     0.00000000     0.00000000     0.00000000
    -1.82764851     0.33890422     0.38726413
    -1.60446724     0.37008312     0.45055696
    -1.28836364     0.39878845     0.52525716
    -1.07325311     0.37754785     0.55801022
    -0.86403262     0.31548522     0.52946353
    -0.62680281     0.24320010     0.44697409
    -0.35908846     0.17533947     0.31270802
    -0.19891675     0.05289205     0.11068048
     0.00000000     0.00000000     0.00000000
     0.00000000     0.00000000     0.00000000
    -1.84550424     0.39794632     0.33108782
    -1.63203930     0.44065386     0.38537373
    -1.31611329     0.47896279     0.44126941
    -1.08474250     0.46788313     0.46580855
    -0.85857113     0.40570176     0.44707720
    -0.61162604     0.32431107     0.38572361
    -0.34309372     0.23274469     0.28056605
    -0.19086161     0.07670858     0.10200587
     0.00000000     0.00000000     0.00000000
     0.00000000     0.00000000     0.00000000
    -1.86170847     0.45083490     0.27133189
    -1.65445328     0.50247016     0.31278093
    -1.33854672     0.55719370     0.34809130
    -1.09781524     0.55834005     0.36090337
    -0.86218899     0.49750768     0.35016487
    -0.60860267     0.40213012     0.31037403
    -0.33840075     0.28360979     0.23328184
    -0.17740600     0.08276923     0.08503682
     0.00000000     0.00000000     0.00000000
     0.00000000     0.00000000     0.00000000
    -1.87747746     0.49803356     0.21037140
    -1.66737765     0.55616172     0.23464797
    -1.35347720     0.63284750     0.25010545
    -1.11480617     0.64651941     0.25074615
    -0.87955569     0.58576761     0.24552403
    -0.62272322     0.47267644     0.22462610
    -0.34449641     0.32432044     0.17468761
    -0.17655542     0.08835171     0.06558570
     0.00000000     0.00000000     0.00000000
     0.00000000     0.00000000     0.00000000
    -1.89078452     0.53849830     0.14405967
    -1.67136612     0.60032621     0.15334648
    -1.36403562     0.70381747     0.15180769
    -1.13838619     0.72722984     0.14263160
    -0.91220236     0.66531645     0.14196230
    -0.65329667     0.53385709     0.13372273
    -0.36305437     0.35611692     0.10722846
    -0.18321044     0.09128141     0.04261849
     0.00000000     0.00000000     0.00000000
     0.00000000     0.00000000     0.00000000