# vtk DataFile Version 3.0
Example VTK
ASCII
DATASET UNSTRUCTURED_GRID
POINTS  1589 float
 -0.120889578922E+02 -0.416401672408E+01  0.143999659298E-27
 -0.100864251991E+02 -0.566230415978E+01  0.468527662872E-27
 -0.807438245322E+01 -0.658814267569E+01  0.553422745623E-27
 -0.606094581897E+01 -0.717723241351E+01  0.604284327936E-27
 -0.404445414382E+01 -0.750111148511E+01  0.629722822805E-27
 -0.202659347828E+01 -0.759357562890E+01  0.628954780925E-27
 -0.775753654591E-02 -0.746102015731E+01  0.506383344586E-27
  0.128287416019E+01 -0.705679785900E+01  0.347945540957E-27
  0.255688000000E+01 -0.652469000000E+01  0.236256104858E-27
 -0.120931140748E+02 -0.333118709521E+01  0.586367155763E-02
 -0.100761398989E+02 -0.453786020336E+01  0.000000000000E+00
 -0.807539867152E+01 -0.528195125753E+01  0.000000000000E+00
 -0.607250036706E+01 -0.575414287204E+01  0.000000000000E+00
 -0.406920421379E+01 -0.601365822569E+01  0.000000000000E+00
 -0.206601707409E+01 -0.608574661681E+01  0.000000000000E+00
 -0.633476792683E-01 -0.598015439640E+01  0.000000000000E+00
  0.128731717020E+01 -0.576512587043E+01  0.000000000000E+00
  0.264212746809E+01 -0.544771992512E+01  0.000000000000E+00
 -0.120923446998E+02 -0.249826012679E+01  0.557428380949E-02
 -0.100773711749E+02 -0.340857911590E+01  0.000000000000E+00
 -0.807820545143E+01 -0.397072998890E+01  0.000000000000E+00
 -0.608250675260E+01 -0.432668352387E+01  0.000000000000E+00
 -0.408800836028E+01 -0.452089483970E+01  0.000000000000E+00
 -0.209453782865E+01 -0.457313970709E+01  0.000000000000E+00
 -0.103224097371E+00 -0.448856095094E+01  0.000000000000E+00
  0.132442366806E+01 -0.446046071170E+01  0.000000000000E+00
  0.275180494848E+01 -0.435988303378E+01  0.000000000000E+00
 -0.120947838997E+02 -0.166626415765E+01  0.435400666025E-02
 -0.100787893255E+02 -0.227915484324E+01  0.000000000000E+00
 -0.808146628650E+01 -0.265795858995E+01  0.000000000000E+00
 -0.608915163886E+01 -0.289704472129E+01  0.000000000000E+00
 -0.409835155524E+01 -0.302635423695E+01  0.000000000000E+00
 -0.210666489454E+01 -0.305844003571E+01  0.000000000000E+00
 -0.112738108939E+00 -0.299523533351E+01  0.000000000000E+00
  0.139377624659E+01 -0.315456132225E+01  0.000000000000E+00
  0.290285761395E+01 -0.326988021541E+01  0.000000000000E+00
 -0.120953928272E+02 -0.834371839115E+00  0.346428917674E-02
 -0.100804350198E+02 -0.115028166492E+01  0.000000000000E+00
 -0.808348523119E+01 -0.134476567647E+01  0.000000000000E+00
 -0.609232588349E+01 -0.146703463447E+01  0.000000000000E+00
 -0.410153222937E+01 -0.153221626295E+01  0.000000000000E+00
 -0.210614032768E+01 -0.154620164200E+01  0.000000000000E+00
 -0.100395520497E+00 -0.150822080049E+01  0.000000000000E+00
  0.149432323022E+01 -0.185836694493E+01  0.000000000000E+00
  0.309007015765E+01 -0.218741704192E+01  0.000000000000E+00
 -0.120951569855E+02 -0.263342954989E-02  0.311232699765E-02
 -0.100801544565E+02 -0.217171375097E-01  0.000000000000E+00
 -0.808375279247E+01 -0.313643270903E-01  0.000000000000E+00
 -0.609344782097E+01 -0.366846232805E-01  0.000000000000E+00
 -0.410306492403E+01 -0.386967466721E-01  0.000000000000E+00
 -0.210584136109E+01 -0.363692109455E-01  0.000000000000E+00
 -0.934328035776E-01 -0.297555316597E-01  0.000000000000E+00
  0.161162484669E+01 -0.585841360518E+00  0.000000000000E+00
  0.333333000000E+01 -0.112691000000E+01  0.673366970746E-27
 -0.120939094995E+02  0.829109070639E+00  0.323209322361E-02
 -0.100786238136E+02  0.110711024741E+01  0.000000000000E+00
 -0.808302594029E+01  0.128305597710E+01  0.000000000000E+00
 -0.609520964893E+01  0.139523662908E+01  0.000000000000E+00
 -0.410999932677E+01  0.145732098953E+01  0.000000000000E+00
 -0.212305845602E+01  0.147597405515E+01  0.000000000000E+00
 -0.131073733433E+00  0.145731092638E+01  0.000000000000E+00
  0.140868977992E+01  0.937925177162E+00  0.000000000000E+00
  0.295894673387E+01  0.422117412317E+00  0.000000000000E+00
 -0.120918267436E+02  0.166085686549E+01  0.377778862788E-02
 -0.100748057185E+02  0.223679625458E+01  0.000000000000E+00
 -0.807916597523E+01  0.259922330617E+01  0.000000000000E+00
 -0.609158232341E+01  0.282973017541E+01  0.000000000000E+00
 -0.410803262146E+01  0.295731978682E+01  0.000000000000E+00
 -0.212597862119E+01  0.299572764872E+01  0.000000000000E+00
 -0.142212015753E+00  0.295215076048E+01  0.000000000000E+00
  0.123880751990E+01  0.246874693652E+01  0.000000000000E+00
  0.263155882950E+01  0.195572817441E+01  0.000000000000E+00
 -0.120879358669E+02  0.249274180500E+01  0.452078555165E-02
 -0.100704961029E+02  0.336763014535E+01  0.000000000000E+00
 -0.807270286053E+01  0.391698566635E+01  0.000000000000E+00
 -0.608149123840E+01  0.426592095076E+01  0.000000000000E+00
 -0.409303155390E+01  0.445947616291E+01  0.000000000000E+00
 -0.210571263279E+01  0.451795100382E+01  0.000000000000E+00
 -0.118145800482E+00  0.444934922652E+01  0.000000000000E+00
  0.111848412423E+01  0.399658857338E+01  0.000000000000E+00
  0.235953470923E+01  0.348718849719E+01  0.000000000000E+00
 -0.120863010479E+02  0.332495051860E+01  0.446549866495E-02
 -0.100663719408E+02  0.449964411689E+01  0.000000000000E+00
 -0.806667263181E+01  0.523525185427E+01  0.000000000000E+00
 -0.606707601656E+01  0.570158961544E+01  0.000000000000E+00
 -0.406738414911E+01  0.596045496008E+01  0.000000000000E+00
 -0.206651862928E+01  0.603737504926E+01  0.000000000000E+00
 -0.618923982511E-01  0.594160427368E+01  0.000000000000E+00
  0.104224255244E+01  0.551722825790E+01  0.000000000000E+00
  0.215340496654E+01  0.500342835090E+01  0.000000000000E+00
 -0.120802417318E+02  0.415744190913E+01  0.127604120882E-27
 -0.100753981675E+02  0.562890642704E+01  0.441316996743E-27
 -0.806501183178E+01  0.654924065385E+01  0.533771593984E-27
 -0.605269507271E+01  0.713357233869E+01  0.583145509307E-27
 -0.403784800958E+01  0.745698576560E+01  0.605063840764E-27
 -0.202208184515E+01  0.755238942993E+01  0.601443792447E-27
 -0.509143764298E-02  0.742691595726E+01  0.447154780225E-27
  0.979567886119E+00  0.703149905134E+01  0.300549628145E-27
  0.195297000000E+01  0.652469000000E+01  0.228448538295E-27
 -0.120888568581E+02 -0.411283088525E+01  0.655467336890E+00
 -0.100859920966E+02 -0.559122831645E+01  0.888190554815E+00
 -0.807466047444E+01 -0.650776069945E+01  0.103284925228E+01
 -0.606099792975E+01 -0.708943999937E+01  0.112474520891E+01
 -0.404433354046E+01 -0.740930913574E+01  0.117513658241E+01
 -0.202640298041E+01 -0.750064212250E+01  0.118969917860E+01
 -0.759159828017E-02 -0.736961511246E+01  0.117022582113E+01
  0.128785879727E+01 -0.697885269577E+01  0.105327272820E+01
  0.256440000000E+01 -0.647239000000E+01  0.677093000000E+00
 -0.120925692546E+02 -0.330843931868E+01  0.727547146288E+00
 -0.100767200688E+02 -0.450530753484E+01  0.986094282515E+00
 -0.807505222677E+01 -0.524601016308E+01  0.114876970815E+01
 -0.607153561668E+01 -0.571506968558E+01  0.125072520105E+01
 -0.406715967998E+01 -0.597237151106E+01  0.130789706022E+01
 -0.206252876232E+01 -0.604411081385E+01  0.132562875651E+01
 -0.576125975746E-01 -0.593868096916E+01  0.130585025710E+01
  0.129685369134E+01 -0.573115236676E+01  0.118000628435E+01
  0.265093621300E+01 -0.543222904943E+01  0.786021871654E+00
 -0.120935294776E+02 -0.249267860572E+01  0.783632063510E+00
 -0.100780244808E+02 -0.339879925833E+01  0.106225377060E+01
 -0.807766703369E+01 -0.396067374520E+01  0.123745421951E+01
 -0.608097031535E+01 -0.431570474519E+01  0.134837035131E+01
 -0.408480781663E+01 -0.450934823681E+01  0.141039921656E+01
 -0.208871913105E+01 -0.456162907589E+01  0.143048152661E+01
 -0.936959575952E-01 -0.447711994964E+01  0.140889660452E+01
  0.133676694664E+01 -0.445289758935E+01  0.127576373389E+01
  0.276193042910E+01 -0.436159042647E+01  0.861406388593E+00
 -0.120947202722E+02 -0.166775952084E+01  0.820777284750E+00
 -0.100793824350E+02 -0.227988360176E+01  0.111331093943E+01
 -0.808085269972E+01 -0.265920812973E+01  0.129762832190E+01
 -0.608729043032E+01 -0.289844124178E+01  0.141420181293E+01
 -0.409472353932E+01 -0.302788968342E+01  0.147941159917E+01
 -0.210057461684E+01 -0.306036228761E+01  0.149983855511E+01
 -0.103258149898E+00 -0.299752715692E+01  0.147734749601E+01
  0.140576111151E+01 -0.315875111783E+01  0.133732374818E+01
  0.291289215476E+01 -0.327520595693E+01  0.895762604843E+00
 -0.120953208953E+02 -0.836759342955E+00  0.838331647943E+00
 -0.100804739076E+02 -0.115251642396E+01  0.113794580477E+01
 -0.808267729105E+01 -0.134745507275E+01  0.132642113241E+01
 -0.609036119243E+01 -0.146993149395E+01  0.144561109969E+01
 -0.409811384609E+01 -0.153537086507E+01  0.151207688116E+01
 -0.210114025284E+01 -0.154980957482E+01  0.153173803466E+01
 -0.937492220860E-01 -0.151244598180E+01  0.150795304010E+01
  0.150290783572E+01 -0.186362268409E+01  0.136256371236E+01
  0.309802278151E+01 -0.218987349685E+01  0.887247980835E+00
 -0.120950406918E+02 -0.265512459526E-02  0.835808260821E+00
 -0.100801788138E+02 -0.209563870714E-01  0.113478128212E+01
 -0.808284849418E+01 -0.303881313149E-01  0.132273087725E+01
 -0.609147175290E+01 -0.355455849801E-01  0.144155557917E+01
 -0.409984809945E+01 -0.375597447188E-01  0.150755417512E+01
 -0.210170628919E+01 -0.355621121345E-01  0.152670506079E+01
 -0.892443070378E-01 -0.293515762009E-01  0.149954025384E+01
  0.161406216106E+01 -0.585432058025E+00  0.134334875861E+01
  0.333333000000E+01 -0.112691000000E+01  0.833333000000E+00
 -0.120937551379E+02  0.831370816183E+00  0.837957345033E+00
 -0.100785154137E+02  0.111094886048E+01  0.113756501627E+01
 -0.808211417628E+01  0.128768502434E+01  0.132574869154E+01
 -0.609307751372E+01  0.140039664874E+01  0.144512276139E+01
 -0.410627013899E+01  0.146271623140E+01  0.151194263376E+01
 -0.211753328307E+01  0.148128460234E+01  0.153291869728E+01
[...]
POINT_DATA      1589
VECTORS Velocities float 
     0.00000000     0.00000000     0.00000000
     0.00000000     0.00000000     0.00000000
     0.00000000     0.00000000     0.00000000
     0.00000000     0.00000000     0.00000000
     0.00000000     0.00000000     0.00000000
     0.00000000     0.00000000     0.00000000
     0.00000000     0.00000000     0.00000000
     0.00000000     0.00000000     0.00000000
     0.00000000     0.00000000     0.00000000
     0.00000000     0.00000000     0.00000000
    24.06465807   -11.32535533     0.00000000
    42.33337021   -20.40507724     0.00000000
    26.14147979    10.37315388     0.00000000
    33.46172753   -17.82879071     0.00000000
   -11.57914234    20.17458771     0.00000000
  -125.15599178    12.93022883     0.00000000
  -193.21489884    28.28573985     0.00000000
  -298.43827080    17.02311634     0.00000000
     0.00000000     0.00000000     0.00000000
    16.11314573   -28.46830773     0.00000000
   -14.30063283    10.49309571     0.00000000
    12.46882922   -10.94562039     0.00000000
    10.99499032     3.21707748     0.00000000
   -11.50050631     9.47943677     0.00000000
  -107.27035447   104.37771709     0.00000000
  -106.53959502   109.02092714     0.00000000
   136.35422422   108.65439227     0.00000000
     0.00000000     0.00000000     0.00000000
   -41.26001362   -21.80839591     0.00000000
   -15.84472041    -0.38727366     0.00000000
   -11.21048602     1.99241526     0.00000000
    -3.52996311   -19.45088938     0.00000000
   -26.14214556    41.14445911     0.00000000
   -64.89772943    93.85185743     0.00000000
    15.69884859   131.86829613     0.00000000
    70.47040223    58.84621489     0.00000000
     0.00000000     0.00000000     0.00000000
   -25.70655133   -25.91479046     0.00000000
   -50.98097011     3.42912583     0.00000000
    -1.65467799   -15.76238547     0.00000000
   -26.49696456    10.01781572     0.00000000
    -1.40294571   -12.55857858     0.00000000
    30.29408954   107.99316281     0.00000000
    34.20972119    78.13739449     0.00000000
   202.50897487    49.84062171     0.00000000
     0.00000000     0.00000000     0.00000000
   -80.86462220    -8.12391981     0.00000000
   -47.30300572   -18.02136020     0.00000000
   -41.72393170   -14.99939316     0.00000000
     3.14312430   -10.97790609     0.00000000
   -31.92956568    11.42513421     0.00000000
     2.10324840   -13.02358920     0.00000000
    51.13343872   112.93320500     0.00000000
     0.00000000     0.00000000     0.00000000
     0.00000000     0.00000000     0.00000000
   -15.30070105     9.25753467     0.00000000
   -51.75187105   -41.14457310     0.00000000
     2.68948982    -7.79630073     0.00000000
   -51.28035200   -37.20217174     0.00000000
    40.41270252     6.48980581     0.00000000
   -21.99742263   -29.28043551     0.00000000
    37.58479573   -25.83710572     0.00000000
   104.19575983    69.28406851     0.00000000
     0.00000000     0.00000000     0.00000000
   -24.29112789     2.82981791     0.00000000
   -29.04252928   -18.91281091     0.00000000
   -42.37867582   -37.19539225     0.00000000
   -30.19267201   -14.62159837     0.00000000
   -52.61498253   -53.06583957     0.00000000
    38.60360356    21.65363146     0.00000000
    56.94315672  -137.09175945     0.00000000
    25.51230683   146.42936995     0.00000000
     0.00000000     0.00000000     0.00000000
    -3.75636496     9.53926534     0.00000000
   -20.23672840   -20.75080994     0.00000000
   -20.36309364   -18.08491326     0.00000000
   -81.82603543   -39.69813216     0.00000000
   -66.51813703   -11.83434693     0.00000000
   -78.06352029   -49.60775331     0.00000000
   -30.37582684     0.69194787     0.00000000
    26.98706802    58.21763896     0.00000000
     0.00000000     0.00000000     0.00000000
    32.71746956    19.64431962     0.00000000
    31.11579475    -1.38905659     0.00000000
   -15.88089003   -11.71370831     0.00000000
   -59.19896068    -8.82340901     0.00000000
  -123.47436350   -25.24537085     0.00000000
  -164.79357370    16.04408624     0.00000000
  -204.07179152    56.58868097     0.00000000
  -186.92953532   140.87113651     0.00000000
     0.00000000     0.00000000     0.00000000
     0.00000000     0.00000000     0.00000000
     0.00000000     0.00000000     0.00000000
     0.00000000     0.00000000     0.00000000
     0.00000000     0.00000000     0.00000000
     0.00000000     0.00000000     0.00000000
     0.00000000     0.00000000     0.00000000
     0.00000000     0.00000000     0.00000000
     0.00000000     0.00000000     0.00000000
     0.00000000     0.00000000     0.00000000
     0.00000000     0.00000000     0.00000000
     0.00000000     0.00000000     0.00000000
     0.00000000     0.00000000     0.00000000
     0.00000000     0.00000000     0.00000000
     0.00000000     0.00000000     0.00000000
     0.00000000     0.00000000     0.00000000
     0.00000000     0.00000000     0.00000000
     0.00000000     0.00000000     0.00000000
     0.00000000     0.00000000     0.00000000
    -6.79349931    -6.32717405    -4.21772079
    15.36197817   -15.87269766     0.82732084
    11.44927495    10.50111146     1.44441427
    13.05114626   -15.93363963    -7.09545087
    23.23677627    14.22986525    26.41554372
   -26.68994950    15.09322990    16.80773239
  -121.09330134    27.06719118   -41.36839235
  -306.80187177    10.60329313   -49.52415626
     0.00000000     0.00000000     0.00000000
    14.53610105   -29.79709486    11.76986086
    -0.17221657     6.39496360    -2.25643631
     4.31898685   -13.77410200     2.04988362
    14.22611216    10.69444016    -5.74432756
    13.68164834   -22.07630549    25.03581678
     0.95064194    81.36105462    11.04418232
   -77.16377657    98.82858655   -59.55431181
   122.92717398    18.93945279  -101.91053530
     0.00000000     0.00000000     0.00000000
   -16.12662079   -18.29746225    15.71185626
    16.63480146    -8.05922852    -6.84232153
   -11.53888831     5.21129625    -0.04997281
    14.35918111   -19.34419090    -0.75836899
    -6.85035798     8.36814958    20.48097818
    10.67241526    41.17838170    21.06549776
    53.23090326   152.44383464   -66.23786257
    -9.32537444   -74.06409639   -60.94647072
     0.00000000     0.00000000     0.00000000
    18.88606837   -26.57596306    21.88568526
   -27.70778290     0.25182164   -12.66857681
    14.70175052   -14.14581221     4.27267847
   -18.85422788     5.26858110    -0.83273153
     3.46379150   -26.60545939    12.84880229
    41.41448244    17.65797906     7.06696692
    67.43150891    62.82730987    21.09028968
   159.20361912    -1.88326992   -69.29212512
     0.00000000     0.00000000     0.00000000
   -46.03139239    -4.82325897    18.16040505
   -19.01082907   -14.64987501   -12.93689780
   -33.66774918   -17.29718149     8.30300023
    19.77606780    -9.18944764    -1.69254896
   -36.65895441     4.01470358     3.59822210
   -17.74521837   -42.82989026    11.37505395
    36.86479924    89.23144976     2.69526816
     0.00000000     0.00000000     0.00000000
     0.00000000     0.00000000     0.00000000
    14.71118827    16.33938061    19.25887479
   -12.71363790   -34.06469132    -6.67675858
    -0.54560484    -9.59417225     4.24016615
   -20.35227220   -32.28772104     6.37793832
    21.56106535    12.49915703     6.43075381
    -4.81490562   -16.23987906    -9.09540909
     4.80770295    -1.09263799    58.35528175
    83.52581225    69.78397128   -59.37716432
     0.00000000     0.00000000     0.00000000
    -6.03033093     4.87901527    10.48060915
    -3.10596641   -13.23708518    -3.31347939
   -43.86492229   -37.46717171     8.30619676
    -6.63418734    -9.82474107     8.86173848
   -55.74795214   -42.91900781    -0.35154396
    40.27642202    11.11960224   -32.55326481
    46.77934180  -116.06483174   -10.74503875
    -3.77418588   160.85121564   -35.45322263
     0.00000000     0.00000000     0.00000000
   -11.12839497     8.93458502     6.43619904
   -15.54955436   -18.51830051     0.42323103
   -26.71342133   -16.06032405    10.33308657
   -62.10934872   -37.77206810    12.53968246
   -68.39444787   -10.96128966     0.58608240
   -72.30223554   -46.78168065   -30.06232355
   -32.23705049     5.80381815   -27.00629646
    17.94478026    89.76609643   -71.32949877
     0.00000000     0.00000000     0.00000000
    -2.17529190    10.85405762    -6.27480706
    -5.76870374    -8.60951510     3.57924209
   -26.48047653   -12.26946174     8.63085216
   -51.22774433    -9.10193073    16.55063360
  -103.68540762   -25.73662826    12.05925561
  -135.95929390    14.07985048    -5.26913993
  -176.03460384    51.58288513   -10.45073453
  -176.87212594   143.84144459    -6.14271968
     0.00000000     0.00000000     0.00000000
     0.00000000     0.00000000     0.00000000
     0.00000000     0.00000000     0.00000000
     0.00000000     0.00000000     0.00000000
     0.00000000     0.00000000     0.00000000
     0.00000000     0.00000000     0.00000000
     0.00000000     0.00000000     0.00000000
     0.00000000     0.00000000     0.00000000
     0.00000000     0.00000000     0.00000000
     0.00000000     0.00000000     0.00000000
     0.00000000     0.00000000     0.00000000
     0.00000000     0.00000000     0.00000000
     0.00000000     0.00000000     0.00000000
     0.00000000     0.00000000     0.00000000
     0.00000000     0.00000000     0.00000000
     0.00000000     0.00000000     0.00000000
     0.00000000     0.00000000     0.00000000
     0.00000000     0.00000000     0.00000000
     0.00000000     0.00000000     0.00000000
     6.52117935    -2.14925198     8.15269873
    13.96228691   -14.43440126     1.16274907
    20.58987345     6.50938014    -2.28002457
     8.85399944    -9.52839463     2.47001721
    35.37482721    -1.09635692     6.10357750
    72.86189098    14.92764282    18.27761970
    -6.56829341    13.28670212   -14.93504706
  -323.34632484     3.81996662   -60.58628856
     0.00000000     0.00000000     0.00000000
    24.37766832   -22.33285531    13.84771875
    -3.16799114     2.13070225    -2.35091640
    19.45748485   -10.97935430    -0.59729686
    10.54802379     4.64912283    -0.80321559
    22.84018255   -18.50833442    11.00110097
    80.17175701    -8.83080889    19.07308585
   -25.95601687   108.28132203   -32.31801466
    61.80186434    18.63183737  -122.95261064
     0.00000000     0.00000000     0.00000000
    -9.30376611   -14.82894786    17.24076795
    13.02912259   -10.41614852    -0.76771653
     1.38247792     6.07656399    -2.59974439
     6.75342293   -24.60779676     3.82255709
    27.88260730    15.70463119    13.05386477
    22.64665763   -85.19675384    27.44820738
    76.68655376   162.94448904   -56.29609754
   -38.63370906  -112.46013157   -90.32593880
     0.00000000     0.00000000     0.00000000
    13.37223654   -19.23928389    17.87167838
   -16.83540874    -1.33186610    -4.40912188
    10.51270831   -12.61410007    -2.22723261
    -5.04728222     1.88062701     4.48674675
     3.01986572   -28.51917247    17.65776760
    33.85838860   -33.51262664   -13.32755297
    88.37220998    44.66614658    40.44905803
   135.54720374   -21.55559146   -89.63392947
     0.00000000     0.00000000     0.00000000
   -35.66259035    -4.00125782    18.44859426
   -11.94691283   -11.93419393    -5.59097974
   -21.09747206   -15.02693520     3.67874404
    19.65957195    -9.28550895     4.39342609
   -20.28780723    -0.52141722     3.48626750
   -31.63039757   -34.30457561   -28.28089744
    18.96348376    39.34111217     0.29956923
     0.00000000     0.00000000     0.00000000
     0.00000000     0.00000000     0.00000000
    16.69716180    12.45177894    16.64316538
   -18.82276748   -26.95142977    -0.56815762
    18.38778965   -10.35812350     5.17571966
   -19.53033829   -23.52411542     4.18384508
    39.31905974    12.89300170    15.46474390
    -3.18205665     0.07489208   -17.44445675
    28.42171111   -42.28606865    69.72598441
    65.46266361    58.25533265  -115.58362394
     0.00000000     0.00000000     0.00000000
    -1.05186477     5.20046605    13.68059277
    -1.58902797    -7.74320336     3.26377506
   -23.67054412   -33.04141302    10.91592728
     9.46056478    -5.99998687     8.59521628
    -8.61455702   -21.82143406    17.32563309
    14.74675273    13.03528974   -37.50592627
    72.80903987   -99.48318232   -19.60049612
    27.85920967   135.89588545   -81.01436293
     0.00000000     0.00000000     0.00000000
    -1.26352154     6.56855731     9.15087046
   -16.49146564   -15.73416509     0.35911735
    -2.27470377   -10.81458349    14.07575753
   -36.65612788   -34.22446468    15.42025017
   -18.28507573    -1.63415884    18.55116726
   -70.72084778   -47.63488213   -38.38524238
   -54.59639557   -11.22329033   -67.76613720
    14.35428487    98.38517886  -105.97119057
     0.00000000     0.00000000     0.00000000
     7.10928298     6.80170874     7.49227328
     0.36422953    -6.12124243     1.20711463
   -14.68955377   -12.54733875    12.47139998
   -20.53658523    -7.20105880    21.16543111
   -61.20494499   -29.27407618    24.10016849
  -120.79829853     9.56223358    -3.70535210
  -182.09664208    46.81658127    -5.20121725
  -192.89992277   129.84932847     0.23283158
     0.00000000     0.00000000     0.00000000
     0.00000000     0.00000000     0.00000000
     0.00000000     0.00000000     0.00000000
     0.00000000     0.00000000     0.00000000
     0.00000000     0.00000000     0.00000000
     0.00000000     0.00000000     0.00000000
     0.00000000     0.00000000     0.00000000
     0.00000000     0.00000000     0.00000000
     0.00000000     0.00000000     0.00000000
     0.00000000     0.00000000     0.00000000
     0.00000000     0.00000000     0.00000000
     0.00000000     0.00000000     0.00000000
     0.00000000     0.00000000     0.00000000
     0.00000000     0.00000000     0.00000000
     0.00000000     0.00000000     0.00000000
     0.00000000     0.00000000     0.00000000
     0.00000000     0.00000000     0.00000000
     0.00000000     0.00000000     0.00000000
     0.00000000     0.00000000     0.00000000
     1.45007134    -1.68539719     5.89560152
    31.74577797   -15.46126534     6.28267696
    15.00633051     3.72979855    -3.63074779
    22.30275113    -7.44162874     3.29861514
    31.35872319    -1.67080423     5.73394711
    56.64739981     1.28741485   -16.43276386
   111.48552260     4.34172294    27.98770520
  -253.06841096    24.23126795   -58.79539816
     0.00000000     0.00000000     0.00000000
    18.17338795   -20.21209945    13.34580896
    20.69661902    -0.14697931     2.28001868
     8.31677653    -8.13225830    -1.25453913
    36.76859725    -3.18362293     1.65797555
    -4.29810186    -1.59075211     6.54780766
    98.62932795   -34.54669506    -5.03820940
    11.69294172    32.01002887    40.58909075
    28.89631020   106.13578607  -116.30801591
     0.00000000     0.00000000     0.00000000
   -15.14306517    -7.98803494    12.82058203
    22.92824167   -11.06117970     2.15478847
     1.05431981    10.80579789    -2.74265016
    17.29599783   -32.94621456     3.69896176
    23.21452672    35.72400849     7.74595993
    37.39305695   -87.09517389     5.17612464
    18.42722825   176.16580132   -23.54870135
    -6.69949183   -47.57352668  -107.23231228
     0.00000000     0.00000000     0.00000000
    17.67375181   -14.92837432    18.20917727
   -15.97473495    -1.57039370    -4.11979592
    22.88990259   -13.07856925     4.89301866
    -6.13098180     5.23172923    -7.13620301
    30.15350553   -29.81169682    33.63616549
    19.63330765    -8.68747242   -46.53781980
   118.72208450    30.21012367    46.48841247
   158.69303841   -10.35113216   -38.31533928
     0.00000000     0.00000000     0.00000000
   -21.32946949    -3.10421794    16.36816562
    16.57274857    -5.32851348    -2.55802769
   -13.86720872   -13.20689994     0.93483783
    34.25388293    -2.61149514     5.23515480
    -8.05362377   -15.26673974     2.52188896
   -34.85298997    -6.31490129   -45.61783678
   -16.87953718    45.14246937   -51.65590947
     0.00000000     0.00000000     0.00000000
     0.00000000     0.00000000     0.00000000
     3.24004029     7.99459593    14.65765536
   -10.50590176   -16.73817098     2.37237934
    16.51060673    -2.88955236     3.99902021
     5.65775614   -24.73337457     4.15579939
    17.34300078    16.38368379    15.61132591
    32.72042211    -8.53527788   -33.90901775
    27.51521638     7.67890161    98.20913216
    50.78164144    50.55467788  -146.58964235
     0.00000000     0.00000000     0.00000000
    -3.74631745     2.93675164    10.27006565
    17.26919958    -2.54296782     5.92824514
   -12.93441606   -24.44336818     9.10585202
    30.06121282    -7.52993833     3.76750779
     9.47593608    -8.11318824    23.27840916
    30.98876815    25.87827488   -29.41104683
    36.72288371  -107.39184834    -6.53424234
    31.76687065   131.09573001  -121.29472352
     0.00000000     0.00000000     0.00000000
    -2.88807368     7.19829005    10.29585430
     7.72485785   -10.03819528     4.61831597
    11.79924686    -3.26311703    12.14442580
     0.87178265   -30.55375849    11.06323613
    20.46070537    14.62782464    25.24054789
    53.86551440   -26.44625180   -20.38289821
   -50.10371549   -42.63437094   -32.63128597
   -44.60980038    96.33663410  -110.85214267
     0.00000000     0.00000000     0.00000000
    12.52865168    10.12549108    10.54505459
    16.78384717    -2.90818411     2.92318443
    -2.84356569    -7.15497651    13.64465427
     9.00292224    -7.03945843    10.76052280
    13.09893433   -13.62020251    30.52953504
    -1.61845432   -12.76756156   -13.34689418
   -94.64857789    13.78406429     9.86254450
  -220.54368082   108.09205206     9.62352066
     0.00000000     0.00000000     0.00000000
     0.00000000     0.00000000     0.00000000
     0.00000000     0.00000000     0.00000000
     0.00000000     0.00000000     0.00000000
     0.00000000     0.00000000     0.00000000
     0.00000000     0.00000000     0.00000000
     0.00000000     0.00000000     0.00000000
     0.00000000     0.00000000     0.00000000
     0.00000000     0.00000000     0.00000000
     0.00000000     0.00000000     0.00000000
     0.00000000     0.00000000     0.00000000
     0.00000000     0.00000000     0.00000000
     0.00000000     0.00000000     0.00000000
     0.00000000     0.00000000     0.00000000
     0.00000000     0.00000000     0.00000000
     0.00000000     0.00000000     0.00000000
     0.00000000     0.00000000     0.00000000
     0.00000000     0.00000000     0.00000000
     0.00000000     0.00000000     0.00000000
    18.46575256    -8.38174686    11.97776188
    24.22655671    -6.75739137     0.36264460
    27.85933507    -5.68237315     8.48029636
     4.92654124     2.98672454    -7.32332777
    44.65549585    -8.59179381    11.56372860
     8.33823376    11.99779232   -17.71462788
   113.25744590    -0.89482187     3.79033428
  -128.26056943    28.95729964    -1.41812064
     0.00000000     0.00000000     0.00000000
    26.69135072   -18.98228793    14.95002163
    17.74581179     2.92190019    -2.78228654
    16.46385586    -9.46385644    12.54567500
    24.49317988     1.98453386   -15.00076309
    18.17599755    -5.51269797    25.48573047
    57.59429382    -2.81692120   -38.12450382
    81.49989064    26.96524847    54.37361504
    -6.57775987   134.34311413   -71.51253855
     0.00000000     0.00000000     0.00000000