# vtk DataFile Version 3.0
Example VTK
ASCII
DATASET UNSTRUCTURED_GRID
POINTS  1589 float
 -0.121505350839E+02 -0.417486432753E+01  0.393758226914E-27
 -0.101462184918E+02 -0.572075811292E+01  0.128756983918E-26
 -0.812536509267E+01 -0.666208590480E+01  0.151638159182E-26
 -0.610245008503E+01 -0.725916003046E+01  0.165291387203E-26
 -0.407457879545E+01 -0.758322663554E+01  0.172284739844E-26
 -0.204443087906E+01 -0.766822498383E+01  0.172241843412E-26
 -0.126822909572E-01 -0.751888538337E+01  0.139241580837E-26
  0.128650493461E+01 -0.709503528544E+01  0.955126118062E-27
  0.255688000000E+01 -0.652469000000E+01  0.644542496066E-27
 -0.121577099962E+02 -0.333978131141E+01  0.930502723360E-02
 -0.101292360937E+02 -0.459073435531E+01  0.000000000000E+00
 -0.812855470798E+01 -0.534992345655E+01  0.000000000000E+00
 -0.612315078340E+01 -0.582929827071E+01  0.000000000000E+00
 -0.411696048321E+01 -0.608933862676E+01  0.000000000000E+00
 -0.211143277483E+01 -0.615416991387E+01  0.000000000000E+00
 -0.108282169224E+00 -0.603524960662E+01  0.000000000000E+00
  0.123648448884E+01 -0.580103021628E+01  0.000000000000E+00
  0.258954837815E+01 -0.545001786129E+01  0.000000000000E+00
 -0.121568393076E+02 -0.250509445977E+01  0.874353975415E-02
 -0.101318122078E+02 -0.345238180183E+01  0.000000000000E+00
 -0.813376006376E+01 -0.402940318853E+01  0.000000000000E+00
 -0.614074753013E+01 -0.439225689405E+01  0.000000000000E+00
 -0.414966259581E+01 -0.458650779717E+01  0.000000000000E+00
 -0.216098009389E+01 -0.463186367886E+01  0.000000000000E+00
 -0.177453925090E+00 -0.453292753302E+01  0.000000000000E+00
  0.124399270401E+01 -0.448460988487E+01  0.000000000000E+00
  0.266573068023E+01 -0.435614287034E+01  0.000000000000E+00
 -0.121608559346E+02 -0.167121575158E+01  0.691850315975E-02
 -0.101342711009E+02 -0.231431760928E+01  0.000000000000E+00
 -0.813941093648E+01 -0.270630248352E+01  0.000000000000E+00
 -0.615232709316E+01 -0.295147805243E+01  0.000000000000E+00
 -0.416773200234E+01 -0.308066613669E+01  0.000000000000E+00
 -0.218217205532E+01 -0.310599259831E+01  0.000000000000E+00
 -0.193847643220E+00 -0.302789386003E+01  0.000000000000E+00
  0.130757729842E+01 -0.316623475725E+01  0.000000000000E+00
  0.281402025114E+01 -0.325836097170E+01  0.000000000000E+00
 -0.121616737557E+02 -0.837539603353E+00  0.545687107500E-02
 -0.101367157193E+02 -0.117732014292E+01  0.000000000000E+00
 -0.814271666930E+01 -0.138256523909E+01  0.000000000000E+00
 -0.615780818245E+01 -0.150997266239E+01  0.000000000000E+00
 -0.417330835592E+01 -0.157547498457E+01  0.000000000000E+00
 -0.218130365181E+01 -0.158450859134E+01  0.000000000000E+00
 -0.172287929669E+00 -0.153411582233E+01  0.000000000000E+00
  0.142528288799E+01 -0.186486297346E+01  0.000000000000E+00
  0.302508404484E+01 -0.217358995830E+01  0.000000000000E+00
 -0.121612303585E+02 -0.411359512832E-02  0.489972568510E-02
 -0.101360728649E+02 -0.408050990499E-01  0.000000000000E+00
 -0.814302991524E+01 -0.584477683920E-01  0.000000000000E+00
 -0.615971802528E+01 -0.677694431340E-01  0.000000000000E+00
 -0.417604330624E+01 -0.712855206381E-01  0.000000000000E+00
 -0.218088854392E+01 -0.672162392498E-01  0.000000000000E+00
 -0.160241818667E+00 -0.554245147704E-01  0.000000000000E+00
  0.157189759099E+01 -0.604671667658E+00  0.000000000000E+00
  0.333333000000E+01 -0.112691000000E+01  0.184259571488E-26
 -0.121591273499E+02  0.829294916218E+00  0.506531255151E-02
 -0.101335063069E+02  0.109621346832E+01  0.000000000000E+00
 -0.814184999636E+01  0.126745794222E+01  0.000000000000E+00
 -0.616283854585E+01  0.137721632376E+01  0.000000000000E+00
 -0.418822011642E+01  0.143730376178E+01  0.000000000000E+00
 -0.221102865626E+01  0.145445547244E+01  0.000000000000E+00
 -0.225871606787E+00  0.143819955503E+01  0.000000000000E+00
  0.132098994548E+01  0.925754586975E+00  0.000000000000E+00
  0.288628448135E+01  0.435837047102E+00  0.000000000000E+00
 -0.121558086702E+02  0.166277102165E+01  0.596689074730E-02
 -0.101276961222E+02  0.223462857225E+01  0.000000000000E+00
 -0.813539469953E+01  0.259631569576E+01  0.000000000000E+00
 -0.615662789407E+01  0.282667127362E+01  0.000000000000E+00
 -0.418493912924E+01  0.295284087450E+01  0.000000000000E+00
 -0.221626688308E+01  0.298903699894E+01  0.000000000000E+00
 -0.245356454696E+00  0.294536789652E+01  0.000000000000E+00
  0.112757586335E+01  0.246855723322E+01  0.000000000000E+00
  0.252106504212E+01  0.197180400902E+01  0.000000000000E+00
 -0.121512637549E+02  0.249635676878E+01  0.671367544633E-02
 -0.101206389533E+02  0.337474125619E+01  0.000000000000E+00
 -0.812413730213E+01  0.392801685119E+01  0.000000000000E+00
 -0.613911219534E+01  0.427912367419E+01  0.000000000000E+00
 -0.415898777028E+01  0.447218933600E+01  0.000000000000E+00
 -0.218119223001E+01  0.452799158187E+01  0.000000000000E+00
 -0.203619945129E+00  0.445667669842E+01  0.000000000000E+00
  0.102032146744E+01  0.400628037097E+01  0.000000000000E+00
  0.225209938576E+01  0.350414576012E+01  0.000000000000E+00
 -0.121457246487E+02  0.333085399022E+01  0.692772700591E-02
 -0.101123071316E+02  0.451811315494E+01  0.000000000000E+00
 -0.811338177010E+01  0.526070844717E+01  0.000000000000E+00
 -0.611406262545E+01  0.573091494298E+01  0.000000000000E+00
 -0.411464706164E+01  0.598967546313E+01  0.000000000000E+00
 -0.211341786462E+01  0.606223145266E+01  0.000000000000E+00
 -0.106173062707E+00  0.595948913001E+01  0.000000000000E+00
  0.989607779118E+00  0.553167654969E+01  0.000000000000E+00
  0.209764275706E+01  0.501012366880E+01  0.000000000000E+00
 -0.121358200631E+02  0.416517601584E+01  0.348697757648E-27
 -0.101276884708E+02  0.565625636621E+01  0.121092011119E-26
 -0.810993333515E+01  0.658638292055E+01  0.146063310073E-26
 -0.608909437743E+01  0.717658771742E+01  0.159513346685E-26
 -0.406397162878E+01  0.749975714361E+01  0.165488434215E-26
 -0.203735540059E+01  0.758903492187E+01  0.164556731118E-26
 -0.875597241950E-02  0.745043185109E+01  0.122501232846E-26
  0.981615281415E+00  0.704643671973E+01  0.825081225601E-27
  0.195297000000E+01  0.652469000000E+01  0.625965246358E-27
 -0.121503335547E+02 -0.412359870045E+01  0.660532152208E+00
 -0.101455364896E+02 -0.564805964293E+01  0.898445052888E+00
 -0.812580981877E+01 -0.658124601511E+01  0.104524828251E+01
 -0.610257233113E+01 -0.717071118141E+01  0.113845766602E+01
 -0.407436285827E+01 -0.749075349558E+01  0.118869381845E+01
 -0.204409037956E+01 -0.757470287458E+01  0.120190408393E+01
 -0.123877284118E-01 -0.742713479030E+01  0.118031575565E+01
  0.129179392499E+01 -0.701662359561E+01  0.106069514406E+01
  0.256440000000E+01 -0.647239000000E+01  0.677093000000E+00
 -0.121565500543E+02 -0.331717228887E+01  0.732748208973E+00
 -0.101299485012E+02 -0.455657163964E+01  0.997143367680E+00
 -0.812787380771E+01 -0.531338187496E+01  0.116320198098E+01
 -0.612142592068E+01 -0.578963554827E+01  0.126656372107E+01
 -0.411340945937E+01 -0.604708697136E+01  0.132429740219E+01
 -0.210537463886E+01 -0.611171882835E+01  0.134190112034E+01
 -0.982305951115E-01 -0.599273172937E+01  0.132142250642E+01
  0.125171237056E+01 -0.576632100714E+01  0.119364581482E+01
  0.260330856649E+01 -0.543449903236E+01  0.791144611600E+00
 -0.121590733825E+02 -0.249955266656E+01  0.789074977536E+00
 -0.101327297139E+02 -0.344142019209E+01  0.107432635523E+01
 -0.813267518910E+01 -0.401873047201E+01  0.125311751166E+01
 -0.613799895810E+01 -0.438059673188E+01  0.136635508356E+01
 -0.414406519432E+01 -0.457418016190E+01  0.142941357623E+01
 -0.215082654231E+01 -0.461970030134E+01  0.145001989864E+01
 -0.160793548559E+00 -0.452087624884E+01  0.142740877228E+01
  0.126522505881E+01 -0.447721991002E+01  0.129259017785E+01
  0.268347923792E+01 -0.435857093410E+01  0.870910992233E+00
 -0.121606127385E+02 -0.167282444626E+01  0.825933335190E+00
 -0.101350623402E+02 -0.231439778321E+01  0.112612963167E+01
 -0.813822296782E+01 -0.270688761171E+01  0.131458888248E+01
 -0.614901729381E+01 -0.295217876416E+01  0.143374370190E+01
 -0.416137183707E+01 -0.308152625784E+01  0.150021804967E+01
 -0.217153161696E+01 -0.310750493782E+01  0.152082933308E+01
 -0.177289714853E+00 -0.303013860380E+01  0.149716786244E+01
  0.132862940686E+01 -0.317147723308E+01  0.135509585228E+01
  0.283188388698E+01 -0.326505731735E+01  0.906025857682E+00
 -0.121615556094E+02 -0.840040512653E+00  0.843159523330E+00
 -0.101366655078E+02 -0.117901159708E+01  0.115118961188E+01
 -0.814126935953E+01 -0.138455329140E+01  0.134403998421E+01
 -0.615433647233E+01 -0.151208739347E+01  0.146573542596E+01
 -0.416729755015E+01 -0.157790405013E+01  0.153332135942E+01
 -0.217253948430E+01 -0.158769894092E+01  0.155235969118E+01
 -0.160658974356E+00 -0.153845257756E+01  0.152685900153E+01
  0.144042735909E+01 -0.187130575296E+01  0.137918466374E+01
  0.303898719079E+01 -0.217745592312E+01  0.894883809471E+00
 -0.121610287223E+02 -0.413763851723E-02  0.840408965059E+00
 -0.101360762500E+02 -0.395351965528E-01  0.114784364250E+01
 -0.814142539836E+01 -0.566875880026E-01  0.134023138687E+01
 -0.615623037925E+01 -0.657105396116E-01  0.146151026041E+01
 -0.417039246482E+01 -0.692178235526E-01  0.152839799867E+01
 -0.217362817321E+01 -0.657316876227E-01  0.154654958712E+01
 -0.152891374048E+00 -0.546717028290E-01  0.151525793326E+01
  0.157617734067E+01 -0.603951513704E+00  0.135159770402E+01
  0.333333000000E+01 -0.112691000000E+01  0.833333000000E+00
 -0.121588694827E+02  0.831602567891E+00  0.842573928106E+00
 -0.101332513105E+02  0.110054627301E+01  0.115036542729E+01
 -0.814016138224E+01  0.127292328584E+01  0.134286036945E+01
 -0.615905229549E+01  0.138343870273E+01  0.146487804152E+01
 -0.418167808564E+01  0.144380988766E+01  0.153309821416E+01
 -0.220137850026E+01  0.146077224087E+01  0.155439786906E+01
[...]
POINT_DATA      1589
VECTORS Velocities float 
     0.00000000     0.00000000     0.00000000
     0.00000000     0.00000000     0.00000000
     0.00000000     0.00000000     0.00000000
     0.00000000     0.00000000     0.00000000
     0.00000000     0.00000000     0.00000000
     0.00000000     0.00000000     0.00000000
     0.00000000     0.00000000     0.00000000
     0.00000000     0.00000000     0.00000000
     0.00000000     0.00000000     0.00000000
     0.00000000     0.00000000     0.00000000
   -26.26869704     9.68598556     0.00000000
    21.36948278    -5.96750578     0.00000000
    62.02589480    -1.31827713     0.00000000
    11.33437479    -5.00141182     0.00000000
  -137.51094892    37.03660789     0.00000000
  -262.34586451   -11.30380857     0.00000000
  -319.98402132     5.20382767     0.00000000
  -444.36366884   -28.30375370     0.00000000
     0.00000000     0.00000000     0.00000000
   -94.63662526   -62.91263511     0.00000000
   -48.68689852    41.67565707     0.00000000
    53.74949101   -14.02271905     0.00000000
   -50.84539928    42.58724859     0.00000000
  -142.87362873    55.07031893     0.00000000
  -213.71349642   109.70036634     0.00000000
  -133.09317385   105.11393012     0.00000000
   194.48490800   126.43540728     0.00000000
     0.00000000     0.00000000     0.00000000
  -121.75373407   -80.80026139     0.00000000
   -37.26530999    33.11971747     0.00000000
   -12.79604552    15.04163230     0.00000000
   -70.24935368    40.72575176     0.00000000
  -122.29127013   102.29777318     0.00000000
  -130.51652036   148.47975234     0.00000000
    16.56077292   146.12662951     0.00000000
    75.49526363   109.45881025     0.00000000
     0.00000000     0.00000000     0.00000000
  -104.58270600   -62.50524405     0.00000000
   -75.59621349    27.31771710     0.00000000
    -5.90060916     9.28056713     0.00000000
   -80.41709876    66.95708317     0.00000000
   -22.26287822    21.82894467     0.00000000
    49.29158639   118.11137741     0.00000000
    52.16140159   140.63435545     0.00000000
   294.43693824    83.86632572     0.00000000
     0.00000000     0.00000000     0.00000000
  -145.95925710   -46.54683891     0.00000000
   -75.62913114   -22.17133197     0.00000000
   -45.72758456    14.26727821     0.00000000
   -26.69915725    27.97487691     0.00000000
   -47.20865464    39.31485695     0.00000000
   -17.03355981   -63.52512423     0.00000000
    61.11160021   186.24886581     0.00000000
     0.00000000     0.00000000     0.00000000
     0.00000000     0.00000000     0.00000000
   -78.98204905   -31.18920344     0.00000000
   -81.66514074   -63.31591020     0.00000000
    21.94502857     1.42105939     0.00000000
   -72.00767607   -14.18243152     0.00000000
    86.43840281    23.31514468     0.00000000
   -69.22763770    11.49225119     0.00000000
    67.13347298  -144.50167481     0.00000000
   156.08791414   165.42114495     0.00000000
     0.00000000     0.00000000     0.00000000
  -109.30954474   -25.24692580     0.00000000
   -81.63829954   -56.69436897     0.00000000
   -60.51072902   -52.80550068     0.00000000
   -60.53466749   -10.17337216     0.00000000
   -36.94106227   -64.73052186     0.00000000
    90.94929535    87.79875124     0.00000000
    42.92033274  -240.03201448     0.00000000
    20.30703139   210.69417657     0.00000000
     0.00000000     0.00000000     0.00000000
   -75.63556035   -19.33595993     0.00000000
   -78.30576351   -63.50066404     0.00000000
   -87.52778965   -45.68624699     0.00000000
  -152.96411898   -55.47564514     0.00000000
   -91.13905619   -13.06403100     0.00000000
   -77.93438317   -41.56072509     0.00000000
     4.61204876    21.95821236     0.00000000
    36.23339975    54.68073678     0.00000000
     0.00000000     0.00000000     0.00000000
     3.75118598   -24.90815783     0.00000000
    -9.28199634   -18.68922626     0.00000000
   -86.37194172   -32.76010849     0.00000000
  -162.96139341   -24.85745234     0.00000000
  -227.39039066   -25.12093557     0.00000000
  -268.55731297    34.74585137     0.00000000
  -310.91913602   104.48843263     0.00000000
  -261.90624198   218.38545741     0.00000000
     0.00000000     0.00000000     0.00000000
     0.00000000     0.00000000     0.00000000
     0.00000000     0.00000000     0.00000000
     0.00000000     0.00000000     0.00000000
     0.00000000     0.00000000     0.00000000
     0.00000000     0.00000000     0.00000000
     0.00000000     0.00000000     0.00000000
     0.00000000     0.00000000     0.00000000
     0.00000000     0.00000000     0.00000000
     0.00000000     0.00000000     0.00000000
     0.00000000     0.00000000     0.00000000
     0.00000000     0.00000000     0.00000000
     0.00000000     0.00000000     0.00000000
     0.00000000     0.00000000     0.00000000
     0.00000000     0.00000000     0.00000000
     0.00000000     0.00000000     0.00000000
     0.00000000     0.00000000     0.00000000
     0.00000000     0.00000000     0.00000000
     0.00000000     0.00000000     0.00000000
    30.16493251   -52.08768154    35.90190969
    32.59083538   -12.51791961   -28.75018973
     4.06200308     5.73046275     4.04537592
    29.85464313   -15.29081911    11.21076949
   -20.89387267    46.24776718    66.18196361
  -138.97166476    12.70215800   -12.51133375
  -250.58738235     5.93751319   -56.18508076
  -465.64151275   -44.95823514   -50.92396278
     0.00000000     0.00000000     0.00000000
    48.14647872   -46.45638845    84.06013647
    14.29843652   -16.78556833   -51.20889841
    15.08221272   -12.56220720     5.97483012
     4.59095169    37.19900287    16.05794062
   -18.90196114    11.53088380    47.10720547
   -59.79010865   110.44957479   -45.14001976
  -136.63765859   112.01914636  -112.86253336
   158.35954215   -10.37813586  -153.83854542
     0.00000000     0.00000000     0.00000000
    27.72116134   -46.43884794    40.25014802
    13.88452562   -35.29260795   -51.71127616
   -32.23018248    25.29683917    18.21537840
    21.63389769    15.35966154    11.77456041
   -32.13379479    46.73750433    28.04086729
    46.75596737   -34.70306840    19.41878414
   101.03509528   187.40730162  -108.00179217
    -9.56412836   -89.78206613  -101.63758131
     0.00000000     0.00000000     0.00000000
    21.64609954   -63.36290320    62.62749219
   -45.15441140   -19.46329858   -54.14731181
    16.10444793    12.47187848    26.26499749
   -34.95348851    42.67028873     5.97708862
     2.27047855    -6.34457958    41.45294742
    45.66338511   -85.73223681   -11.66930326
   104.04769864    76.51636643    21.05424117
   255.03823149    -6.72210132  -116.68561407
     0.00000000     0.00000000     0.00000000
   -39.63799502   -34.07157397    48.80532050
   -27.90023274   -44.41376465   -36.12285362
   -53.02080330    17.60389184    40.33197024
    32.06138307    19.20842701    -2.22449682
   -65.29055908     6.68123471     4.92926705
   -61.18337917   -48.70506134   -34.19366438
    16.95405933   105.30420365     6.43086644
     0.00000000     0.00000000     0.00000000
     0.00000000     0.00000000     0.00000000
    32.36083624   -18.92523935    59.01649947
   -24.51091062   -62.14928330   -36.19779099
    -7.89357116     9.80411234    30.09330342
    12.73358993   -17.73622087    11.88439654
    38.64272620    26.76205979    11.19022389
   -27.80823060    47.58930557   -15.17566334
    31.18727001   -91.10743668    67.31814558
   107.32615578   148.74995323   -61.30947816
     0.00000000     0.00000000     0.00000000
   -16.96213377   -35.56042506    33.52803702
   -50.20502898   -48.52054657   -26.64870453
   -76.79964546   -52.63863184    36.06137228
    10.10521949     0.96429420     0.54799404
   -73.77041378   -32.52406526     3.23566784
   101.79806292    85.31231990   -30.08289219
    55.84575622  -216.09832795   -65.09100852
   -13.22217059   242.40763166   -51.52076475
     0.00000000     0.00000000     0.00000000
    -3.77472000    -3.83073119    55.01611097
   -67.60829397   -59.34742226   -22.02906120
   -97.14235977   -41.49252176    33.11008068
  -124.10501335   -54.75231996    -6.01557175
  -104.56396787     0.39270698    -5.61800739
   -75.79211306   -27.92502776   -54.46619245
     2.18041715     8.66304542    12.33807839
    40.48085089    92.39249934  -143.26249211
     0.00000000     0.00000000     0.00000000
     0.36957551    28.71823065    -3.65546537
   -41.35914677   -34.14739280     2.39430452
   -94.93661427   -31.46083926    24.34382619
  -138.57942117   -25.66802335    12.43950882
  -210.48300659   -28.66061944    12.28922415
  -226.61164137    31.58594751    -7.23288644
  -272.71239744   108.20978632   -12.83841174
  -249.28978698   215.61319984    -7.33332093
     0.00000000     0.00000000     0.00000000
     0.00000000     0.00000000     0.00000000
     0.00000000     0.00000000     0.00000000
     0.00000000     0.00000000     0.00000000
     0.00000000     0.00000000     0.00000000
     0.00000000     0.00000000     0.00000000
     0.00000000     0.00000000     0.00000000
     0.00000000     0.00000000     0.00000000
     0.00000000     0.00000000     0.00000000
     0.00000000     0.00000000     0.00000000
     0.00000000     0.00000000     0.00000000
     0.00000000     0.00000000     0.00000000
     0.00000000     0.00000000     0.00000000
     0.00000000     0.00000000     0.00000000
     0.00000000     0.00000000     0.00000000
     0.00000000     0.00000000     0.00000000
     0.00000000     0.00000000     0.00000000
     0.00000000     0.00000000     0.00000000
     0.00000000     0.00000000     0.00000000
    40.01534528    -9.83857052    42.10243878
    53.11371447   -25.76620191     5.19346589
    39.84526021    -1.39918124   -10.08422428
    22.02135228     0.82747421    25.44199311
    85.72977320     1.18008825    30.27650669
   123.04429405    34.74110122    -9.32332565
   -53.77344474     9.87259633   -31.84603429
  -508.46418795   -30.71643421   -51.01526051
     0.00000000     0.00000000     0.00000000
    43.34137632   -40.43260424    31.67772600
    48.98902003   -23.93907358     8.44364690
    41.96109281    -2.67177782   -14.39755504
    35.41604636    -6.19410791    19.68940719
    53.96044063    21.83077468    25.62921142
   140.17691778   -60.39142939     6.23888633
   -25.83105912   150.16460986   -72.41687062
    32.58760971    -4.11586853  -175.15635689
     0.00000000     0.00000000     0.00000000
    11.51314746   -40.47354838    46.01307519
    40.82699511   -39.86341699    -6.18655598
     7.44693990    21.74750341   -12.73080622
    27.95051850   -44.09890599    22.60866282
    64.69260253    79.32616324    14.69784123
    56.10174996  -152.63554303    43.14101335
   140.97534880   203.48362287   -92.50599611
   -45.74596646  -144.89448204  -146.44606749
     0.00000000     0.00000000     0.00000000
    16.29246196   -45.18824774    38.27477362
    -8.25609927   -33.57217005   -13.16841423
    11.02211238    -4.15322534     0.06961237
     5.53099793     2.29197660     5.41415925
    30.64095832    16.13910479    57.21065599
    57.70705943   -60.84008592   -75.34819112
   115.36140783    61.08294212    54.80143781
   216.49894342   -45.67036013  -145.87268645
     0.00000000     0.00000000     0.00000000
   -26.14570484   -28.31439873    50.61967565
    -9.81290683   -51.43132810    -5.43074151
   -23.99970124    -7.48026952    19.08941871
    24.69502443     4.56259419    11.94842595
    24.16006933    12.88914418    15.86684632
   -41.75488791   -31.43907280   -91.28216389
     2.88963931     5.43370112   -23.72703676
     0.00000000     0.00000000     0.00000000
     0.00000000     0.00000000     0.00000000
    33.94244147   -13.85224119    39.28837867
   -18.07457164   -59.17371356     7.23130111
    19.83594817   -18.26333483    21.09076178
    -2.60800473    -1.49381503    -5.22358769
    75.58186656    -2.84516878    39.63785200
    -0.68420962    78.30724305   -63.90599144
    89.09978365  -156.49425735    51.41744682
    71.46427990   134.62214503  -123.05583385
     0.00000000     0.00000000     0.00000000
   -20.05650643   -22.18153908    41.34610773
   -30.74918252   -42.51334049    11.79211102
   -45.36637530   -57.32251704    18.82404728
    20.87163573     6.95232942     5.46790499
     4.90777487   -19.45974309    32.90851971
    43.50090823    64.61030016   -44.49660161
   110.15788758  -167.28495534   -69.63657799
    45.69683716   200.97146147  -125.24717516
     0.00000000     0.00000000     0.00000000
    -2.43869548     0.70794582    22.89907622
   -42.43015570   -49.33764233    16.55017190
   -55.56339788   -39.98349985    19.09031423
   -88.65328199   -48.77744110    19.73032147
   -51.95375273    12.57792628     5.28581258
  -114.93704916   -32.79081981   -52.24879074
   -52.21735462   -10.55465291   -90.65482478
    43.62700550   117.58997281  -181.05343485
     0.00000000     0.00000000     0.00000000
     2.33216821    -6.50185564    21.31348704
   -18.96600907   -18.43644294    15.20568940
   -61.92408452   -37.31565360    24.35698474
  -100.97384004   -21.41173071    30.24303065
  -167.22166860   -33.81702944    17.89039502
  -229.33040245    36.46394464     2.41356460
  -294.96153684   106.45794314    -0.29064449
  -285.36063036   188.99949337    10.29002088
     0.00000000     0.00000000     0.00000000
     0.00000000     0.00000000     0.00000000
     0.00000000     0.00000000     0.00000000
     0.00000000     0.00000000     0.00000000
     0.00000000     0.00000000     0.00000000
     0.00000000     0.00000000     0.00000000
     0.00000000     0.00000000     0.00000000
     0.00000000     0.00000000     0.00000000
     0.00000000     0.00000000     0.00000000
     0.00000000     0.00000000     0.00000000
     0.00000000     0.00000000     0.00000000
     0.00000000     0.00000000     0.00000000
     0.00000000     0.00000000     0.00000000
     0.00000000     0.00000000     0.00000000
     0.00000000     0.00000000     0.00000000
     0.00000000     0.00000000     0.00000000
     0.00000000     0.00000000     0.00000000
     0.00000000     0.00000000     0.00000000
     0.00000000     0.00000000     0.00000000
     8.78731452    -8.36617894    11.93919629
    64.74005586   -26.81620229    20.00803512
    45.09444182    -0.63894765    -6.11536914
    51.75124846    -4.83276417    22.16631433
    81.02658769    -2.43447938     1.32623085
    90.12401092    -2.17405010   -21.01020652
   174.74710934    -3.61373414     4.24277836
  -390.20003690    25.07642963   -55.57624908
     0.00000000     0.00000000     0.00000000
    27.95285588   -25.16659763    32.13414213
    59.97945487   -28.08944707     5.27106577
    36.38685123     6.38278037     7.22398340
    79.62698849   -28.41678406     2.15553529
    29.88682261    23.93435827    13.66815009
   141.13132892   -40.00005128    -3.20069972
    54.89282479    45.23635218    58.47690285
    36.85431430   142.23669066  -164.30380088
     0.00000000     0.00000000     0.00000000
    -2.76515127   -23.38351280    27.10153375
    42.52360709   -42.02386407     1.06142070
    26.81782165    32.72120664     5.03468081
    42.36120054   -73.02100095    -5.98641551
    55.91198141    86.14596125    13.81837957
    75.99284524  -116.05849234   -20.17879055
    43.43954139   231.69299765   -54.76446284
   -17.68556703   -52.73440350  -132.67790042
     0.00000000     0.00000000     0.00000000
    31.07985991   -35.98025343    41.17338414
    -7.97090117   -24.37983517    -5.96631015
    47.16460702   -17.90885163    22.89068149
    14.96869166   -14.49002449   -30.55246175
    69.34072922     9.49393768    67.74779232
    58.38454797   -48.87765866   -68.29561829
   180.39461358    80.23410237    36.39757607
   231.11966783   -29.44839289   -58.08628341
     0.00000000     0.00000000     0.00000000
   -24.03126510   -20.06126300    30.06439621
    33.50453394   -30.34737522     7.42829960
     1.10368116   -32.30982283    18.49126724
    50.73879090    -6.63422672    -1.51406476
    42.79861597    -8.40911070    14.64398069
   -43.01771243    -4.13538405   -73.71977178
   -30.56329880    90.84905914  -110.78988526
     0.00000000     0.00000000     0.00000000
     0.00000000     0.00000000     0.00000000
    11.44370838   -11.20148039    37.42354771
    -0.84484601   -38.92059172    14.87560566
    29.12496817   -30.12285198    26.98190827
    31.84691236   -20.03804631   -17.14869492
    52.60857917   -10.01099759    38.84800846
    57.69406987    50.93480103   -76.39640109
    40.80098797   -54.12140772    80.26385902
    62.97426981   154.18080345  -144.55701718
     0.00000000     0.00000000     0.00000000
   -13.62620840   -15.84819913    26.22398639
    26.04762229   -21.51389084    20.82907261
   -11.86948285   -56.58188413    24.88054754
    50.29885662   -15.81522357    -9.91661098
    23.44049004   -20.55389460    39.70130982
    71.58608249    75.97916392   -41.71359719
    42.45309353  -176.86483337   -42.35422652
    53.05144163   216.66965609  -201.00993742
     0.00000000     0.00000000     0.00000000
     0.43389733     0.36411564    31.61902190
     8.70825643   -32.32844375    18.98247879
     7.78333164   -23.52256228    31.49455910
    -8.74128506   -58.48959716    12.73232093
    17.88730195    20.04326718    36.41166003
    79.52549563   -15.87090456   -41.02510565
   -62.30898357   -50.14478612   -50.31484354
   -64.03841891   130.08478135  -180.69180518
     0.00000000     0.00000000     0.00000000
    15.35190703     9.46051401    20.90715087
    22.54571524   -13.48772254    20.62070475
   -12.87216475   -22.55865667    30.77898199
   -14.46379599   -21.87096243    20.41800884
   -41.09210489   -18.78630168    38.59195248
   -70.89093789   -13.14287780    -9.98292621
  -197.15965805    59.03007287    33.48554060
  -346.35389617   169.63624682    21.84687207
     0.00000000     0.00000000     0.00000000
     0.00000000     0.00000000     0.00000000
     0.00000000     0.00000000     0.00000000
     0.00000000     0.00000000     0.00000000
     0.00000000     0.00000000     0.00000000
     0.00000000     0.00000000     0.00000000
     0.00000000     0.00000000     0.00000000
     0.00000000     0.00000000     0.00000000
     0.00000000     0.00000000     0.00000000
     0.00000000     0.00000000     0.00000000
     0.00000000     0.00000000     0.00000000
     0.00000000     0.00000000     0.00000000
     0.00000000     0.00000000     0.00000000
     0.00000000     0.00000000     0.00000000
     0.00000000     0.00000000     0.00000000
     0.00000000     0.00000000     0.00000000
     0.00000000     0.00000000     0.00000000
     0.00000000     0.00000000     0.00000000
     0.00000000     0.00000000     0.00000000
    24.98804284    -9.47819264    18.95181478
    50.85923773   -17.83334399     5.66456820
    55.53767524    -4.09608376    16.13448716
    35.20983721     1.08244265    -1.97992267
    76.27324604    -5.69332341    10.95160715
    32.19381590    26.99828762    -6.04900592
   154.84153514     2.66781126   -15.17498304
  -178.50812517    30.42507793    17.20857918
     0.00000000     0.00000000     0.00000000
    38.87654652   -24.15162125    24.77390987
    43.65930875   -16.41582868    -4.37730437
    41.80416700     0.70198324    25.03271176
    58.52756841   -13.34031509   -20.46647910
    49.23652907    15.62716586    38.34049028
    80.79525284   -13.43088109   -60.99858881
   113.08690265    51.05523553    64.63093347
    28.16808339   192.50201141   -89.50241140
     0.00000000     0.00000000     0.00000000