# vtk DataFile Version 3.0
Example VTK
ASCII
DATASET UNSTRUCTURED_GRID
POINTS  1589 float
 -0.897380916598E+01 -0.442620314529E+01  0.985922757281E-27
 -0.738961428696E+01 -0.592123951252E+01  0.171528189407E-26
 -0.580257400903E+01 -0.684704331497E+01  0.179543725301E-26
 -0.421836998760E+01 -0.742042613814E+01  0.185522523075E-26
 -0.263515460382E+01 -0.772012618538E+01  0.176487065524E-26
 -0.105574093675E+01 -0.776941285185E+01  0.136316417997E-26
  0.515882267302E+00 -0.757127954154E+01  0.347605466516E-27
  0.149084516848E+01 -0.704423685228E+01 -0.128140606120E-26
  0.255688000000E+01 -0.652469000000E+01 -0.297147354483E-26
 -0.897623194157E+01 -0.355350473386E+01 -0.697000711726E-02
 -0.743697821895E+01 -0.475449657665E+01  0.000000000000E+00
 -0.587155493349E+01 -0.549255632450E+01  0.000000000000E+00
 -0.430444371585E+01 -0.594882796800E+01  0.000000000000E+00
 -0.273773258087E+01 -0.618252058155E+01  0.000000000000E+00
 -0.116782988650E+01 -0.621228907403E+01  0.000000000000E+00
  0.419316800252E+00 -0.603052174310E+01  0.000000000000E+00
  0.154886872211E+01 -0.570471846343E+01  0.000000000000E+00
  0.279456421802E+01 -0.542271970516E+01  0.000000000000E+00
 -0.897979362296E+01 -0.268250044228E+01 -0.892587121379E-02
 -0.745789462454E+01 -0.358809907574E+01  0.000000000000E+00
 -0.591659594065E+01 -0.413869199380E+01  0.000000000000E+00
 -0.436451452267E+01 -0.447624970564E+01  0.000000000000E+00
 -0.280169282581E+01 -0.464520188356E+01  0.000000000000E+00
 -0.121821393100E+01 -0.465832711779E+01  0.000000000000E+00
  0.412108740209E+00 -0.451017518880E+01  0.000000000000E+00
  0.164545784854E+01 -0.441398063717E+01  0.000000000000E+00
  0.299315090938E+01 -0.435463474911E+01  0.000000000000E+00
 -0.898235015136E+01 -0.181128071642E+01 -0.107036886307E-01
 -0.747236100885E+01 -0.241703386318E+01  0.000000000000E+00
 -0.594492397438E+01 -0.278221683402E+01  0.000000000000E+00
 -0.440223820247E+01 -0.300376431453E+01  0.000000000000E+00
 -0.283973542489E+01 -0.311174073304E+01  0.000000000000E+00
 -0.124515426060E+01 -0.311503886906E+01  0.000000000000E+00
  0.406288196145E+00 -0.301304355097E+01  0.000000000000E+00
  0.172481818742E+01 -0.314125012743E+01  0.000000000000E+00
  0.315360289173E+01 -0.329165692907E+01  0.000000000000E+00
 -0.898485661410E+01 -0.940460233640E+00 -0.116758753011E-01
 -0.748143446161E+01 -0.124328384013E+01  0.000000000000E+00
 -0.596260629668E+01 -0.142350382091E+01  0.000000000000E+00
 -0.442533086001E+01 -0.153123394629E+01  0.000000000000E+00
 -0.286351179567E+01 -0.158148005850E+01  0.000000000000E+00
 -0.126515289630E+01 -0.157893563515E+01  0.000000000000E+00
  0.391102662195E+00 -0.152512848774E+01  0.000000000000E+00
  0.177626366257E+01 -0.186795220515E+01  0.000000000000E+00
  0.327172855074E+01 -0.221901260457E+01  0.000000000000E+00
 -0.898703689870E+01 -0.696891468812E-01 -0.124612660666E-01
 -0.748777089176E+01 -0.679797130584E-01  0.000000000000E+00
 -0.597304403385E+01 -0.634042020327E-01  0.000000000000E+00
 -0.443895483312E+01 -0.585847878818E-01  0.000000000000E+00
 -0.287801627601E+01 -0.527384659018E-01  0.000000000000E+00
 -0.127828145813E+01 -0.458652616519E-01  0.000000000000E+00
  0.380608590581E+00 -0.397191212264E-01  0.000000000000E+00
  0.181799245602E+01 -0.575074895156E+00  0.000000000000E+00
  0.333333000000E+01 -0.112691000000E+01 -0.419077107191E-26
 -0.898901526704E+01  0.801055575521E+00 -0.125565368140E-01
 -0.749021294624E+01  0.110779429575E+01  0.000000000000E+00
 -0.597649166109E+01  0.129705049852E+01  0.000000000000E+00
 -0.444270528690E+01  0.141400444098E+01  0.000000000000E+00
 -0.288044861091E+01  0.147492355223E+01  0.000000000000E+00
 -0.127443579005E+01  0.148529341477E+01  0.000000000000E+00
  0.402992416610E+00  0.143753393180E+01  0.000000000000E+00
  0.175144637959E+01  0.916307138556E+00  0.000000000000E+00
  0.318164752529E+01  0.376002644774E+00  0.000000000000E+00
 -0.899060518351E+01  0.167177505055E+01 -0.123469067097E-01
 -0.748994641511E+01  0.228294036200E+01  0.000000000000E+00
 -0.597252869185E+01  0.265678913078E+01  0.000000000000E+00
 -0.443743267875E+01  0.288644144716E+01  0.000000000000E+00
 -0.287646423342E+01  0.300290809903E+01  0.000000000000E+00
 -0.127248789761E+01  0.301552406119E+01  0.000000000000E+00
  0.405939935087E+00  0.291358405136E+01  0.000000000000E+00
  0.165373749283E+01  0.239970205345E+01  0.000000000000E+00
  0.298151621673E+01  0.189761335511E+01  0.000000000000E+00
 -0.899272782140E+01  0.254308601367E+01 -0.108523988456E-01
 -0.748477702979E+01  0.345601216776E+01  0.000000000000E+00
 -0.595806413348E+01  0.401477928365E+01  0.000000000000E+00
 -0.441857742564E+01  0.435936416272E+01  0.000000000000E+00
 -0.286340031889E+01  0.453451875129E+01  0.000000000000E+00
 -0.127709391727E+01  0.455372610847E+01  0.000000000000E+00
  0.375725057893E+00  0.440146083309E+01  0.000000000000E+00
  0.149782036681E+01  0.389092516022E+01  0.000000000000E+00
  0.270846579166E+01  0.341608092443E+01  0.000000000000E+00
 -0.899504130417E+01  0.341422852792E+01 -0.854613535026E-02
 -0.747400108389E+01  0.462439619612E+01  0.000000000000E+00
 -0.592549238850E+01  0.537051951376E+01  0.000000000000E+00
 -0.437548614492E+01  0.583358682359E+01  0.000000000000E+00
 -0.282419987279E+01  0.607268431778E+01  0.000000000000E+00
 -0.126653827596E+01  0.610843821020E+01  0.000000000000E+00
  0.323399101111E+00  0.592149377912E+01  0.000000000000E+00
  0.129056621673E+01  0.540430974967E+01  0.000000000000E+00
  0.234406869357E+01  0.495917226149E+01  0.000000000000E+00
 -0.900030907490E+01  0.428726361946E+01  0.854362487922E-27
 -0.743439966529E+01  0.579325755580E+01  0.150809841691E-26
 -0.586715424234E+01  0.672729697756E+01  0.163346722013E-26
 -0.430048197098E+01  0.730798141757E+01  0.165373461795E-26
 -0.273527267467E+01  0.761444940950E+01  0.148485902022E-26
 -0.117501985676E+01  0.767304205234E+01  0.896674968875E-27
  0.371925321109E+00  0.748059946120E+01 -0.618774386764E-27
  0.110367905644E+01  0.698020061963E+01 -0.229271273651E-26
  0.195297000000E+01  0.652469000000E+01 -0.268563918217E-26
 -0.897400960151E+01 -0.437233266268E+01  0.754853662144E+00
 -0.738943009356E+01 -0.584979024707E+01  0.101568695480E+01
 -0.580193907857E+01 -0.676328932379E+01  0.117683387269E+01
 -0.421725550367E+01 -0.732939580680E+01  0.127707325314E+01
 -0.263304373945E+01 -0.762524498887E+01  0.133070637207E+01
 -0.105265194577E+01 -0.767345626464E+01  0.134217732291E+01
  0.522263862861E+00 -0.747805171911E+01  0.131357810693E+01
  0.150632544447E+01 -0.696908488782E+01  0.116026053499E+01
  0.256440000000E+01 -0.647239000000E+01  0.677093000000E+00
 -0.897639974161E+01 -0.353017164157E+01  0.838350657696E+00
 -0.743363633852E+01 -0.472281444805E+01  0.113028031387E+01
 -0.586672015370E+01 -0.545555239857E+01  0.130803668539E+01
 -0.429742358940E+01 -0.590860134079E+01  0.141974209977E+01
 -0.272866664103E+01 -0.614061128577E+01  0.147851968438E+01
 -0.115684895292E+01 -0.617066338271E+01  0.148971003402E+01
  0.429953395379E+00 -0.599418358644E+01  0.144457160050E+01
  0.155301701630E+01 -0.567924815415E+01  0.127050285381E+01
  0.279042913608E+01 -0.540739890610E+01  0.756738521076E+00
 -0.897915967538E+01 -0.267604130187E+01  0.901665522425E+00
 -0.745374339878E+01 -0.357941219397E+01  0.121885621433E+01
 -0.591001573857E+01 -0.412876288560E+01  0.141092723366E+01
 -0.435517131520E+01 -0.446554605617E+01  0.152943512135E+01
 -0.279052907632E+01 -0.463431814179E+01  0.159035594944E+01
 -0.120753709202E+01 -0.464851944775E+01  0.159662484053E+01
  0.417580090612E+00 -0.450387597664E+01  0.154705184369E+01
  0.164249775654E+01 -0.441064997821E+01  0.136121297841E+01
  0.298096480860E+01 -0.435459005840E+01  0.815647656032E+00
 -0.898176188181E+01 -0.181264753209E+01  0.944501861094E+00
 -0.746754651300E+01 -0.241857445851E+01  0.127872821000E+01
 -0.593783631030E+01 -0.278425314463E+01  0.147981159986E+01
 -0.439238710025E+01 -0.300611205997E+01  0.160326314644E+01
 -0.282849129551E+01 -0.311436452208E+01  0.166551012128E+01
 -0.123507391516E+01 -0.311844795305E+01  0.167078935034E+01
  0.410599103581E+00 -0.301750853221E+01  0.161873350613E+01
  0.171915705078E+01 -0.314492345690E+01  0.142185086290E+01
  0.313949849212E+01 -0.329315705579E+01  0.845541447167E+00
 -0.898428362027E+01 -0.942492236829E+00  0.965023045287E+00
 -0.747722754409E+01 -0.124626760020E+01  0.130785729934E+01
 -0.595565907831E+01 -0.142717812937E+01  0.151319012595E+01
 -0.441572348951E+01 -0.153538717648E+01  0.163904907738E+01
 -0.285250163047E+01 -0.158589546723E+01  0.170233042755E+01
 -0.125467173721E+01 -0.158349517871E+01  0.170808186499E+01
  0.397586913434E+00 -0.152916975692E+01  0.165531157776E+01
  0.177359905507E+01 -0.187052279103E+01  0.145199142605E+01
  0.326013105894E+01 -0.221710580178E+01  0.845973631716E+00
 -0.898687125596E+01 -0.695580754971E-01  0.962559341246E+00
 -0.748330291934E+01 -0.679693943945E-01  0.130479116045E+01
 -0.596640381921E+01 -0.635080229482E-01  0.150981680123E+01
 -0.442981718974E+01 -0.588236534295E-01  0.163516892162E+01
 -0.286768611748E+01 -0.530585928040E-01  0.169792732942E+01
 -0.126835414271E+01 -0.458123660671E-01  0.170289561019E+01
  0.387743352653E+00 -0.386201305664E-01  0.165207474182E+01
  0.182189036139E+01 -0.575556108092E+00  0.144304309856E+01
  0.333333000000E+01 -0.112691000000E+01  0.833333000000E+00
 -0.898861842901E+01  0.803266726574E+00  0.964689094793E+00
 -0.748617374994E+01  0.111077759199E+01  0.130877471042E+01
 -0.596978379807E+01  0.130053947255E+01  0.151449562600E+01
 -0.443370923587E+01  0.141775162841E+01  0.163993162975E+01
 -0.287093103576E+01  0.147886508857E+01  0.170169093660E+01
 -0.126709840744E+01  0.149006397857E+01  0.170353962723E+01
[...]
POINT_DATA      1589
VECTORS Velocities float 
     0.00000000     0.00000000     0.00000000
     0.00000000     0.00000000     0.00000000
     0.00000000     0.00000000     0.00000000
     0.00000000     0.00000000     0.00000000
     0.00000000     0.00000000     0.00000000
     0.00000000     0.00000000     0.00000000
     0.00000000     0.00000000     0.00000000
     0.00000000     0.00000000     0.00000000
     0.00000000     0.00000000     0.00000000
     0.00000000     0.00000000     0.00000000
    -5.64148637     7.50264177     0.00000000
   -15.41990239     9.00298524     0.00000000
   -20.37204130     5.76871574     0.00000000
   -20.72633881     0.71881126     0.00000000
   -18.45324678    -3.79987289     0.00000000
   -11.01944767    -7.80097304     0.00000000
    -8.49938734    -1.78480895     0.00000000
    -5.53072567     1.04902742     0.00000000
     0.00000000     0.00000000     0.00000000
    -5.44609770    13.51863939     0.00000000
   -14.75937499    13.86869116     0.00000000
   -17.85550474     5.45162731     0.00000000
   -14.10397447    -3.85557274     0.00000000
    -8.75769420   -11.66045222     0.00000000
    -6.98484330   -10.84095548     0.00000000
    -2.61347445     1.55138822     0.00000000
     7.09784267     5.59925108     0.00000000
     0.00000000     0.00000000     0.00000000
     0.76197626    11.45201457     0.00000000
     2.15961217    10.66921139     0.00000000
     5.76074672     0.72918294     0.00000000
     9.78270879    -7.02655830     0.00000000
     2.56970818   -13.40265685     0.00000000
   -10.57008101    -8.03924771     0.00000000
   -11.92291369     2.34053626     0.00000000
     1.83960982     7.63909356     0.00000000
     0.00000000     0.00000000     0.00000000
     7.71572043    -0.51820945     0.00000000
    20.05836137    -2.30533157     0.00000000
    26.39618827    -4.22837678     0.00000000
    27.76453711    -3.84673867     0.00000000
    13.93860648    -2.71350824     0.00000000
    -9.75524630     1.28600178     0.00000000
   -17.91315940     4.88407749     0.00000000
    -8.85878901     7.01418382     0.00000000
     0.00000000     0.00000000     0.00000000
     6.88536188   -13.91002298     0.00000000
    15.74240123   -15.62394720     0.00000000
    20.90904499    -6.46960588     0.00000000
    22.62015817     2.89929335     0.00000000
     7.99795905    12.95511258     0.00000000
    -9.94480008     8.28889170     0.00000000
    -9.41379227     0.48179248     0.00000000
     0.00000000     0.00000000     0.00000000
     0.00000000     0.00000000     0.00000000
     2.18134262   -21.85050760     0.00000000
     1.14169641   -20.67022955     0.00000000
     0.88177812    -6.46490624     0.00000000
    -0.07683638     9.70032871     0.00000000
    -7.24849883    20.16640099     0.00000000
   -14.18360624    10.74365553     0.00000000
   -12.11194886    -1.38665446     0.00000000
    -6.17851583    -0.22342414     0.00000000
     0.00000000     0.00000000     0.00000000
    -3.31469533   -23.35682615     0.00000000
   -11.67252683   -19.24286791     0.00000000
   -17.35211641    -6.09044683     0.00000000
   -16.86835955     8.83445427     0.00000000
   -15.38071376    15.47062165     0.00000000
    -9.29428798     8.80623392     0.00000000
    -8.44818555    -1.00375585     0.00000000
    -4.94302090    -2.76768192     0.00000000
     0.00000000     0.00000000     0.00000000
    -6.91481371   -18.27564426     0.00000000
   -19.03497962   -15.80235896     0.00000000
   -23.45333981    -7.58684539     0.00000000
   -20.90158641     0.76981716     0.00000000
   -14.55328364     6.42660122     0.00000000
    -7.01776635     4.45571672     0.00000000
     0.66210013    -2.51050282     0.00000000
     3.84419429    -4.82275741     0.00000000
     0.00000000     0.00000000     0.00000000
    -5.83998775    -8.60673301     0.00000000
   -15.54964410    -9.37423278     0.00000000
   -19.80550706    -6.96773941     0.00000000
   -19.37046105    -2.57516933     0.00000000
   -15.52605811     0.75943054     0.00000000
    -6.60945824     3.29381556     0.00000000
    -2.82212869    -0.06931644     0.00000000
     3.22064363    -0.72828853     0.00000000
     0.00000000     0.00000000     0.00000000
     0.00000000     0.00000000     0.00000000
     0.00000000     0.00000000     0.00000000
     0.00000000     0.00000000     0.00000000
     0.00000000     0.00000000     0.00000000
     0.00000000     0.00000000     0.00000000
     0.00000000     0.00000000     0.00000000
     0.00000000     0.00000000     0.00000000
     0.00000000     0.00000000     0.00000000
     0.00000000     0.00000000     0.00000000
     0.00000000     0.00000000     0.00000000
     0.00000000     0.00000000     0.00000000
     0.00000000     0.00000000     0.00000000
     0.00000000     0.00000000     0.00000000
     0.00000000     0.00000000     0.00000000
     0.00000000     0.00000000     0.00000000
     0.00000000     0.00000000     0.00000000
     0.00000000     0.00000000     0.00000000
     0.00000000     0.00000000     0.00000000
    -6.14933583     8.59010170     2.74417871
   -14.03629713     8.34159565     2.25460417
   -17.79276114     5.94671928     1.12314626
   -18.48380558     1.65180558     0.49409553
   -16.03967846    -2.02473942     0.19304481
    -8.91474028    -7.00005332    -1.38730378
    -4.72857718    -3.44542043    -4.17256390
    -2.91201164    -0.63693847    -4.51680204
     0.00000000     0.00000000     0.00000000
    -6.17125322    13.24061541     2.91512805
   -13.88394987    13.94860007     1.05224749
   -16.84288351     6.92092825    -1.09204590
   -14.11889944    -0.77111166     0.03012882
    -5.67799847    -7.91034757     2.16030516
     0.09894976   -10.55121559     1.28374954
     3.22364180    -3.81447586    -5.27802561
     6.86310595     1.57646146    -7.66398095
     0.00000000     0.00000000     0.00000000
    -0.47124461    10.27945833     3.94507937
     2.01316988    10.77352349     1.52155294
     5.82287551     2.78154238    -1.75899439
     7.98667239    -5.11660440    -1.44311485
     8.98818440    -9.57375811     3.88705484
     5.10447524    -9.43199190     4.17644198
    -1.52431793    -5.11968425    -5.92110766
    -1.13990978     3.16619013    -7.44854938
     0.00000000     0.00000000     0.00000000
     5.87010707    -0.48071665     4.65855387
    18.42080476    -2.15173223     4.63085159
    28.25524755    -3.91435552     1.95194031
    25.97905705    -3.74503384    -1.18631689
    20.02786218    -1.73607763     3.43133952
     7.49215722    -0.29867573     5.19056313
    -4.06025838     0.82990547    -4.20862987
   -11.66829080     4.44031237    -1.90695514
     0.00000000     0.00000000     0.00000000
     4.79079579   -12.65941395     2.84156001
    14.82833234   -15.58425242     2.11692103
    20.80928104    -7.86172768    -1.83268254
    18.51530655     1.64010089    -3.91401616
    12.38033993    10.27255095     3.27811037
     3.25051235    10.19452689     4.63299828
    -0.72532628     3.84180764    -4.15256436
     0.00000000     0.00000000     0.00000000
     0.00000000     0.00000000     0.00000000
     0.32066948   -20.92700085     2.01483428
     0.69789860   -20.75728359     0.63277303
    -0.84164710    -7.81447741    -3.88173240
    -2.89074737     6.66812097    -2.25736301
    -1.81015783    17.59754678     3.66683664
    -4.81181839    16.61029261     1.59988597
    -5.53012883     5.73232346    -3.38343149
    -5.16074865    -0.59426028    -2.43944311
     0.00000000     0.00000000     0.00000000
    -5.42661886   -22.85521496     2.39420575
   -11.39959670   -19.17226564     2.27343756
   -15.32041337    -7.10575766     1.56182054
   -15.00010911     6.57567173     3.21278522
   -10.59723518    15.84850895     3.88792354
    -5.35403830    16.36258934    -0.95582153
    -5.74316766     7.34767764    -3.43389827
    -5.62960636    -1.80176207    -0.52615551
     0.00000000     0.00000000     0.00000000
    -8.63827789   -18.53890971     2.25354009
   -18.29485120   -15.27031159     2.62862325
   -21.85241342    -7.53762151     1.73704870
   -19.39864433     1.66614663     1.87607348
   -12.65273609     9.99252270     0.17725207
    -6.17708560    12.05556664    -4.50238878
     0.59620530     5.64147836    -5.56664149
     2.14336659    -1.91086170    -2.83229211
     0.00000000     0.00000000     0.00000000
    -7.09350146   -10.28628358     2.20880156
   -15.44695376    -8.88164592     1.79973796
   -19.51323093    -6.56149075    -0.06179435
   -20.15937716    -1.18802692    -1.87675492
   -15.93770590     3.59379736    -3.89145410
    -6.55911284     7.19372996    -6.30771594
    -1.76192915     3.01785297    -6.95388605
     3.65313784     0.79522206    -4.61373220
     0.00000000     0.00000000     0.00000000
     0.00000000     0.00000000     0.00000000
     0.00000000     0.00000000     0.00000000
     0.00000000     0.00000000     0.00000000
     0.00000000     0.00000000     0.00000000
     0.00000000     0.00000000     0.00000000
     0.00000000     0.00000000     0.00000000
     0.00000000     0.00000000     0.00000000
     0.00000000     0.00000000     0.00000000
     0.00000000     0.00000000     0.00000000
     0.00000000     0.00000000     0.00000000
     0.00000000     0.00000000     0.00000000
     0.00000000     0.00000000     0.00000000
     0.00000000     0.00000000     0.00000000
     0.00000000     0.00000000     0.00000000
     0.00000000     0.00000000     0.00000000
     0.00000000     0.00000000     0.00000000
     0.00000000     0.00000000     0.00000000
     0.00000000     0.00000000     0.00000000
    -3.11037402     6.21668496     4.63371998
    -9.02207960     7.63862570     2.78610440
   -12.35881571     5.57992496     1.35795156
   -13.19723525     1.95076706    -0.34306148
   -12.36897577    -0.58344168    -1.26352854
    -6.36457949    -6.78548146    -2.24567330
    -4.87393403    -4.47873685    -3.58088843
    -3.23061100    -4.09929870    -5.82500776
     0.00000000     0.00000000     0.00000000
    -2.01242370     9.35794406     6.69115610
    -8.02508378    12.72965729     1.54307625
   -12.09789115     8.02735514    -1.35047825
   -10.70747864     2.22875985    -2.03021661
    -3.34143235    -2.98243578    -0.32716201
     2.96642362    -7.24908744    -0.23923921
     5.35342035    -5.98215362    -4.75827974
     6.37385914    -3.44482544   -11.57670156
     0.00000000     0.00000000     0.00000000
     2.13692825     6.02350356     8.21740658
     5.40436025     8.18756430     4.77063395
     7.61786910     3.70428043     1.09860223
    10.35233649    -1.45249312     0.00075407
    11.27800676    -3.65416461     1.28479339
    14.42036895    -4.32333473     2.54156325
     8.45791654    -4.97949586    -3.60970787
    -1.09488826    -3.01060770   -11.66721239
     0.00000000     0.00000000     0.00000000
     5.91166585    -2.71867990     8.39068383
    16.72570199    -4.85071107     7.73805584
    24.72515908    -5.35782051     4.94916443
    25.96796436    -3.65902828     2.02082074
    21.36819173    -0.37911533     0.66520318
    17.53134963     1.66276364     1.95011011
     9.59180744    -0.14659167    -3.25596582
    -5.55320422     0.67098967    -6.62356545
     0.00000000     0.00000000     0.00000000
     5.07291257   -12.20852809     6.22057636
    12.10370265   -16.26454676     3.05456147
    14.94975642   -11.00433749    -1.16020764
    14.91319576    -2.94769976    -3.84065951
    12.10027428     5.42378174    -2.24439181
    11.48657362     9.69685748     1.38237108
     7.12835787     6.50761134    -5.24910736
     0.00000000     0.00000000     0.00000000
     0.00000000     0.00000000     0.00000000
     1.58857641   -18.74356496     5.44386216
     0.23123579   -20.68395032     0.92330661
    -2.99620980   -12.33270624    -3.19705359
    -4.49837974    -2.21025987    -5.21579832
    -0.55462124     9.11701480    -2.77811402
     2.42564992    16.68886748    -0.69948079
     2.45454874    11.98818614    -3.93586627
    -0.15905181     1.06265898    -5.79578392
     0.00000000     0.00000000     0.00000000
    -3.08972696   -20.32692923     5.70376165
    -9.68669140   -19.27508671     2.63654304
   -13.63073266   -10.84250710     1.69587635
   -12.24073486    -0.52940035     0.45327248
    -7.94740442    10.76747589    -0.68022685
    -1.29440774    19.56785038    -2.65556461
    -2.19436213    14.35643093    -4.10208343
    -2.74843174     2.41663778    -2.76025960
     0.00000000     0.00000000     0.00000000
    -5.71143164   -16.42691024     6.09315462
   -15.61090860   -15.29695415     3.30289599
   -19.43002076    -8.78530800     2.64210188
   -18.02835409     0.07443856     0.14012585
   -11.69379180    11.30389593    -2.81860832
    -7.08276323    18.28886268    -6.40950714
    -1.44093823    12.19182532    -6.98188930
     1.10117419     2.97644768    -5.03398732
     0.00000000     0.00000000     0.00000000
    -4.95281364    -8.67615638     4.46493538
   -12.91291807    -8.86107118     2.93419670
   -17.62627204    -6.59025945     1.88094897
   -19.77321019    -0.59788982    -0.99172616
   -16.70001750     5.82676251    -4.06247384
    -6.97994555    11.57923063    -6.91970255
    -4.41544185     6.77246305    -7.17353651
     1.11105741     4.29149047    -6.60277733
     0.00000000     0.00000000     0.00000000
     0.00000000     0.00000000     0.00000000
     0.00000000     0.00000000     0.00000000
     0.00000000     0.00000000     0.00000000
     0.00000000     0.00000000     0.00000000
     0.00000000     0.00000000     0.00000000
     0.00000000     0.00000000     0.00000000
     0.00000000     0.00000000     0.00000000
     0.00000000     0.00000000     0.00000000
     0.00000000     0.00000000     0.00000000
     0.00000000     0.00000000     0.00000000
     0.00000000     0.00000000     0.00000000
     0.00000000     0.00000000     0.00000000
     0.00000000     0.00000000     0.00000000
     0.00000000     0.00000000     0.00000000
     0.00000000     0.00000000     0.00000000
     0.00000000     0.00000000     0.00000000
     0.00000000     0.00000000     0.00000000
     0.00000000     0.00000000     0.00000000
    -0.60289829     3.50484446     4.18003820
    -2.72817571     4.36584452     2.40177669
    -5.84668827     4.01684481     0.29367719
    -7.18036974     0.57603228    -1.09627206
    -8.42067922    -0.48201883    -2.33621178
    -4.68774586    -5.70371689    -2.07208924
    -2.06470318    -3.28508166    -0.91203776
    -4.80575071    -6.25520686    -4.62763576
     0.00000000     0.00000000     0.00000000
     1.29337710     3.83365269     6.80736095
     0.94887979     6.29464759     3.75206514
    -0.47146075     3.97589725    -0.41376062
    -2.42609646     1.02116115    -2.41730873
    -0.56895478    -2.29069764    -3.44638317
     0.44969611    -5.81739924    -2.06951925
     1.32669629    -5.05869192    -1.57668475
     5.29103827    -5.51867424    -9.37653455
     0.00000000     0.00000000     0.00000000
     3.14652814     1.55433137     8.91475877
     9.68707124     1.80761538     8.71764105
    13.48594296     1.00578004     5.35778332
    14.66552672    -0.72338140     2.69911632
    13.01915863    -0.38842856     0.05293801
    10.50890886    -2.03653010    -0.61696814
     8.18591487    -2.11969263    -1.51500125
    -0.04878786    -3.54233071    -9.31831792
     0.00000000     0.00000000     0.00000000
     5.26229231    -4.21895204     8.93450179
    13.82992042    -6.28970875     9.92447272
    22.06225090    -5.28304366     7.59741283
    23.17275714    -1.53831507     4.18546441
    22.35193783     2.30910908     1.20344345
    13.24338853     5.98297445    -1.17575101
    11.49810383     0.79237590    -2.25339995
     4.30545631    -1.41520556    -6.16954236
     0.00000000     0.00000000     0.00000000
     3.99752127   -10.56209033     6.96606678
    10.96388703   -14.37467973     5.43939524
    14.77002731   -11.32679956     1.03089184
    17.61170129    -4.00128254    -2.22248194
    15.34186148     5.50366409    -4.23265513
    11.41641770    12.25341132    -3.39430247
     6.51150010     9.12718526    -4.82005755
     0.00000000     0.00000000     0.00000000
     0.00000000     0.00000000     0.00000000
     1.75758229   -14.94611197     6.21057079
     2.54297198   -18.48319900     3.89709015
     3.03401650   -14.28558241    -1.75340199
     3.36618955    -5.89682923    -6.52211040
     5.65709812     8.06488251    -8.94463868
     3.60092281    16.88756544    -5.23596122
     5.11703489    15.13973196    -2.11754846
     3.25878344     3.21410296    -6.92754924
     0.00000000     0.00000000     0.00000000
    -1.56339043   -16.15351678     6.57787055
    -4.72455242   -17.82578879     4.75945512
    -8.71658457   -14.47822300     0.09106596
    -8.07794058    -5.00228122    -4.64696603
    -6.16177732     9.06477223    -8.86098213
    -1.84836890    20.22300761    -6.24829909
    -0.58014097    15.81474881    -2.40287893
    -1.49193661     6.45091149    -3.95236750
     0.00000000     0.00000000     0.00000000
    -3.46036928   -13.10500395     6.30939818
    -9.50860883   -14.30076828     5.44919122
   -14.17937405   -11.51641893     2.39366599
   -16.26439972    -4.44381028    -1.07232082
   -13.37730981     9.28380528    -6.20183297
    -8.03196295    18.37671600    -7.18117119
    -2.32249730    14.27224668    -3.92139071
    -0.95310664     6.58772304    -5.80094045
     0.00000000     0.00000000     0.00000000
    -2.93204909    -7.21093684     4.80720368
    -7.85988859    -7.82304650     4.20289686
   -12.48800622    -7.43499995     3.36170988
   -15.50833521    -2.87017611     1.82613467
   -15.31387217     3.25848949    -1.45065376
    -6.01586563    10.63722532    -4.46172094
    -3.03202078     5.65455401    -4.00846006
    -1.70189434     7.56003932    -6.11662804
     0.00000000     0.00000000     0.00000000
     0.00000000     0.00000000     0.00000000
     0.00000000     0.00000000     0.00000000
     0.00000000     0.00000000     0.00000000
     0.00000000     0.00000000     0.00000000
     0.00000000     0.00000000     0.00000000
     0.00000000     0.00000000     0.00000000
     0.00000000     0.00000000     0.00000000
     0.00000000     0.00000000     0.00000000
     0.00000000     0.00000000     0.00000000
     0.00000000     0.00000000     0.00000000
     0.00000000     0.00000000     0.00000000
     0.00000000     0.00000000     0.00000000
     0.00000000     0.00000000     0.00000000
     0.00000000     0.00000000     0.00000000
     0.00000000     0.00000000     0.00000000
     0.00000000     0.00000000     0.00000000
     0.00000000     0.00000000     0.00000000
     0.00000000     0.00000000     0.00000000
     1.09907114     0.52958297     2.51729831
     1.43915492     0.47654852     1.15126154
    -0.44681635     0.19985243    -0.21347259
    -1.59596814    -0.76075574    -1.30398977
    -3.35035595    -1.01084270    -1.27855132
    -2.52893312    -2.88068209    -1.54245267
     0.23220873    -0.81064234    -0.02388451
    -3.18510637    -4.49164937    -1.59729479
     0.00000000     0.00000000     0.00000000
     2.80797554     0.06302171     4.65635176
     5.54236925     0.18298330     3.22646615
     5.36386257    -0.68765037     1.08446643
     3.65150389    -1.14050577    -1.13187013
     0.65335002    -0.99735981    -1.85118759
    -0.38039666    -4.42016092    -2.01223791
    -0.82485047    -0.80859312     0.35207216
     2.25307165    -3.67124768    -3.65526034
     0.00000000     0.00000000     0.00000000