# vtk DataFile Version 3.0
Example VTK
ASCII
DATASET UNSTRUCTURED_GRID
POINTS  1589 float
 -0.122218549943E+02 -0.418701776610E+01  0.773802229265E-27
 -0.102155102853E+02 -0.578764235920E+01  0.254260131436E-26
 -0.818589657502E+01 -0.675606010401E+01  0.300720471849E-26
 -0.615261104952E+01 -0.736765884679E+01  0.328331744390E-26
 -0.410934941647E+01 -0.768965285205E+01  0.342325114811E-26
 -0.206203332662E+01 -0.776719907512E+01  0.342088858457E-26
 -0.152504138350E-01 -0.758670472481E+01  0.275493857833E-26
  0.129173796955E+01 -0.713905244174E+01  0.188431129291E-26
  0.255688000000E+01 -0.652469000000E+01  0.127111552491E-26
 -0.122314658552E+02 -0.335006673964E+01  0.127751661965E-01
 -0.101884601734E+02 -0.465179065755E+01  0.000000000000E+00
 -0.818982155573E+01 -0.543641974062E+01  0.000000000000E+00
 -0.618372158629E+01 -0.593002749587E+01  0.000000000000E+00
 -0.417495009119E+01 -0.618995116026E+01  0.000000000000E+00
 -0.216787285443E+01 -0.624554230374E+01  0.000000000000E+00
 -0.165114886374E+00 -0.610027622582E+01  0.000000000000E+00
  0.117267550505E+01 -0.584219040188E+01  0.000000000000E+00
  0.252323864243E+01 -0.545270944373E+01  0.000000000000E+00
 -0.122342435525E+02 -0.251239646552E+01  0.114148167314E-01
 -0.101933260152E+02 -0.350319585384E+01  0.000000000000E+00
 -0.819669636962E+01 -0.410437423016E+01  0.000000000000E+00
 -0.620966124595E+01 -0.447975189442E+01  0.000000000000E+00
 -0.422519668730E+01 -0.467400151468E+01  0.000000000000E+00
 -0.224467543434E+01 -0.471002231785E+01  0.000000000000E+00
 -0.272175175033E+00 -0.458588649404E+01  0.000000000000E+00
  0.114170463001E+01 -0.451231262730E+01  0.000000000000E+00
  0.255669924755E+01 -0.435116024954E+01  0.000000000000E+00
 -0.122365860759E+02 -0.167667602235E+01  0.954829112784E-02
 -0.101961554359E+02 -0.235639025917E+01  0.000000000000E+00
 -0.820512233085E+01 -0.276869117611E+01  0.000000000000E+00
 -0.622698225904E+01 -0.302419769781E+01  0.000000000000E+00
 -0.425237985779E+01 -0.315349265670E+01  0.000000000000E+00
 -0.227661099256E+01 -0.316964131639E+01  0.000000000000E+00
 -0.296738019060E+00 -0.306765074549E+01  0.000000000000E+00
  0.119810262297E+01 -0.317937424771E+01  0.000000000000E+00
  0.270138666500E+01 -0.324369165364E+01  0.000000000000E+00
 -0.122373193244E+02 -0.841064611275E+00  0.741578935117E-02
 -0.101987015836E+02 -0.121004134503E+01  0.000000000000E+00
 -0.820984845482E+01 -0.143203012495E+01  0.000000000000E+00
 -0.623523292773E+01 -0.156779373636E+01  0.000000000000E+00
 -0.426062727222E+01 -0.163405468374E+01  0.000000000000E+00
 -0.227461956298E+01 -0.163627410797E+01  0.000000000000E+00
 -0.262747191449E+00 -0.156658152442E+01  0.000000000000E+00
  0.133797289959E+01 -0.187230536574E+01  0.000000000000E+00
  0.294281926108E+01 -0.215611382648E+01  0.000000000000E+00
 -0.122365089593E+02 -0.588130321256E-02  0.663952180497E-02
 -0.101976315935E+02 -0.638609098827E-01  0.000000000000E+00
 -0.821028249233E+01 -0.945361395369E-01  0.000000000000E+00
 -0.623812758239E+01 -0.110461020919E+00  0.000000000000E+00
 -0.426469248251E+01 -0.116191127332E+00  0.000000000000E+00
 -0.227366092539E+01 -0.109352927152E+00  0.000000000000E+00
 -0.243887525714E+00 -0.883427293122E-01  0.000000000000E+00
  0.152183292857E+01 -0.628167154648E+00  0.000000000000E+00
  0.333333000000E+01 -0.112691000000E+01  0.363946301770E-26
 -0.122333213923E+02  0.829313677699E+00  0.678792321284E-02
 -0.101938832439E+02  0.108322958406E+01  0.000000000000E+00
 -0.820859888601E+01  0.124569457105E+01  0.000000000000E+00
 -0.624293773186E+01  0.135098196837E+01  0.000000000000E+00
 -0.428336083236E+01  0.140829763207E+01  0.000000000000E+00
 -0.231992741699E+01  0.142427387216E+01  0.000000000000E+00
 -0.344828266934E+00  0.141315502137E+01  0.000000000000E+00
  0.121028492056E+01  0.910373554657E+00  0.000000000000E+00
  0.279440254504E+01  0.453229962079E+00  0.000000000000E+00
 -0.122284324475E+02  0.166466275498E+01  0.816749977297E-02
 -0.101852529795E+02  0.223233838289E+01  0.000000000000E+00
 -0.819895733126E+01  0.259039311922E+01  0.000000000000E+00
 -0.623355549402E+01  0.281917372981E+01  0.000000000000E+00
 -0.427838688003E+01  0.294333748727E+01  0.000000000000E+00
 -0.232804680439E+01  0.297767760938E+01  0.000000000000E+00
 -0.374888149920E+00  0.293570224993E+01  0.000000000000E+00
  0.987061662028E+00  0.246801459192E+01  0.000000000000E+00
  0.238123222325E+01  0.199218232247E+01  0.000000000000E+00
 -0.122216882556E+02  0.250002144809E+01  0.928445524197E-02
 -0.101750777834E+02  0.338406180778E+01  0.000000000000E+00
 -0.818231500947E+01  0.393983199176E+01  0.000000000000E+00
 -0.620700820993E+01  0.429228984444E+01  0.000000000000E+00
 -0.423855370130E+01  0.448457246354E+01  0.000000000000E+00
 -0.227392625271E+01  0.453819473333E+01  0.000000000000E+00
 -0.310529648253E+00  0.446496413013E+01  0.000000000000E+00
  0.896555994648E+00  0.401783390901E+01  0.000000000000E+00
  0.211627518462E+01  0.352554888620E+01  0.000000000000E+00
 -0.122134585783E+02  0.333665727458E+01  0.973768099221E-02
 -0.101629740192E+02  0.454141322080E+01  0.000000000000E+00
 -0.816643839933E+01  0.529184237429E+01  0.000000000000E+00
 -0.616889856872E+01  0.576533537221E+01  0.000000000000E+00
 -0.417063381404E+01  0.602394067624E+01  0.000000000000E+00
 -0.216995634356E+01  0.609242739861E+01  0.000000000000E+00
 -0.161113031143E+00  0.598209051432E+01  0.000000000000E+00
  0.923596183315E+00  0.554900101129E+01  0.000000000000E+00
  0.202731341003E+01  0.501855556033E+01  0.000000000000E+00
 -0.121990345532E+02  0.417295061696E+01  0.685442483789E-27
 -0.101870149047E+02  0.569132177785E+01  0.239362699899E-26
 -0.816077118424E+01  0.663422010454E+01  0.288482993181E-26
 -0.613039221186E+01  0.723011871408E+01  0.314500040516E-26
 -0.409372892442E+01  0.755309479431E+01  0.326227005941E-26
 -0.205479484235E+01  0.763611095959E+01  0.324600096168E-26
 -0.130169031584E-01  0.748233206965E+01  0.242028040549E-26
  0.983870498150E+00  0.706497991731E+01  0.163026276410E-26
  0.195297000000E+01  0.652469000000E+01  0.123793210365E-26
 -0.122214671558E+02 -0.413577266780E+01  0.666297641940E+00
 -0.102145158735E+02 -0.571313614911E+01  0.911257579313E+00
 -0.818633576654E+01 -0.667374235380E+01  0.106236160572E+01
 -0.615257590034E+01 -0.727651543024E+01  0.115821726041E+01
 -0.410891592360E+01 -0.759530245128E+01  0.120849620887E+01
 -0.206186458670E+01 -0.767207802527E+01  0.121905051283E+01
 -0.153065051912E-01 -0.749429085496E+01  0.119390906652E+01
  0.129788505748E+01 -0.706017890373E+01  0.107028659469E+01
  0.256440000000E+01 -0.647239000000E+01  0.677093000000E+00
 -0.122305229133E+02 -0.332720494438E+01  0.738554041408E+00
 -0.101895206065E+02 -0.461594820674E+01  0.101191512603E+01
 -0.818838978418E+01 -0.539820647257E+01  0.118290303170E+01
 -0.618050346878E+01 -0.588716285490E+01  0.128689605174E+01
 -0.416916175622E+01 -0.614432161229E+01  0.134589475213E+01
 -0.215849002758E+01 -0.620049431961E+01  0.136307943269E+01
 -0.149593973731E+00 -0.605623310188E+01  0.134201298110E+01
  0.119493607816E+01 -0.580713183463E+01  0.121129354581E+01
  0.254329364287E+01 -0.543708758619E+01  0.797643817253E+00
 -0.122343655341E+02 -0.250721348781E+01  0.795232705152E+00
 -0.101935783536E+02 -0.349159135521E+01  0.109002362587E+01
 -0.819508265222E+01 -0.409225536305E+01  0.127516465598E+01
 -0.620546236374E+01 -0.446553233655E+01  0.139017192607E+01
 -0.421629292709E+01 -0.465905694346E+01  0.145476914745E+01
 -0.222854690375E+01 -0.469593517253E+01  0.147594161649E+01
 -0.246111518460E+00 -0.457285671716E+01  0.145267963752E+01
  0.117437928228E+01 -0.450550246923E+01  0.131447015088E+01
  0.258413004970E+01 -0.435452741054E+01  0.882912771936E+00
 -0.122362174908E+02 -0.167837967325E+01  0.831434218268E+00
 -0.101966415668E+02 -0.235560833786E+01  0.114302270679E+01
 -0.820321856033E+01 -0.276802178659E+01  0.133826693325E+01
 -0.622189132506E+01 -0.302294571256E+01  0.145976957235E+01
 -0.424241768265E+01 -0.315242513256E+01  0.152795805396E+01
 -0.225990932317E+01 -0.316992143401E+01  0.154886768901E+01
 -0.270944739048E+00 -0.306971498438E+01  0.152439689245E+01
  0.123076128199E+01 -0.318609509928E+01  0.137824593628E+01
  0.272918392707E+01 -0.325214762467E+01  0.919062254034E+00
 -0.122371520641E+02 -0.843720279943E+00  0.848375975380E+00
 -0.101986252227E+02 -0.121089004539E+01  0.116816694594E+01
 -0.820770023098E+01 -0.143275408241E+01  0.136844726817E+01
 -0.622995975797E+01 -0.156821481919E+01  0.149253839371E+01
 -0.425129499731E+01 -0.163486804934E+01  0.156137140179E+01
 -0.226091596126E+01 -0.163848398353E+01  0.157957621657E+01
 -0.244637062538E+00 -0.157096902792E+01  0.155250360293E+01
  0.136153148790E+01 -0.188027951819E+01  0.140075162650E+01
  0.296429692976E+01 -0.216178102365E+01  0.904579085864E+00
 -0.122362269263E+02 -0.596108242882E-02  0.845253034704E+00
 -0.101976811032E+02 -0.617765567449E-01  0.116452805391E+01
 -0.820797432816E+01 -0.914897906002E-01  0.136436731785E+01
 -0.623285890334E+01 -0.106756351586E+00  0.148815649606E+01
 -0.425599012030E+01 -0.112470419934E+00  0.155588725121E+01
 -0.226236894611E+01 -0.106672182891E+00  0.157255521659E+01
 -0.232444848688E+00 -0.870352367120E-01  0.153655404156E+01
  0.152849600412E+01 -0.627010351124E+00  0.136249969221E+01
  0.333333000000E+01 -0.112691000000E+01  0.833333000000E+00
 -0.122329907732E+02  0.831640681597E+00  0.847351934355E+00
 -0.101935739634E+02  0.108840846417E+01  0.116672107651E+01
 -0.820614760187E+01  0.125242740679E+01  0.136650305186E+01
 -0.623722315514E+01  0.135886982489E+01  0.149136335169E+01
 -0.427331532341E+01  0.141654011228E+01  0.156108104446E+01
 -0.230503191953E+01  0.143212363195E+01  0.158255182773E+01
[...]
POINT_DATA      1589
VECTORS Velocities float 
     0.00000000     0.00000000     0.00000000
     0.00000000     0.00000000     0.00000000
     0.00000000     0.00000000     0.00000000
     0.00000000     0.00000000     0.00000000
     0.00000000     0.00000000     0.00000000
     0.00000000     0.00000000     0.00000000
     0.00000000     0.00000000     0.00000000
     0.00000000     0.00000000     0.00000000
     0.00000000     0.00000000     0.00000000
     0.00000000     0.00000000     0.00000000
  -112.42695403    78.77038080     0.00000000
   -17.89067132    -1.79224173     0.00000000
    37.00199263     4.09424488     0.00000000
  -140.93488038    22.85052252     0.00000000
  -266.91722947    15.30081062     0.00000000
  -356.20009030   -49.25719377     0.00000000
  -431.66356512   -16.75162369     0.00000000
  -568.14522098   -75.62518764     0.00000000
     0.00000000     0.00000000     0.00000000
  -187.38107213   -43.24233103     0.00000000
   -80.43101673    65.44135682     0.00000000
   -22.34871382    29.40011529     0.00000000
  -199.64093723    67.05338726     0.00000000
  -238.18240686    56.26450949     0.00000000
  -293.46587125   143.42504091     0.00000000
  -129.09225394    93.45919987     0.00000000
   231.96992479   170.41323026     0.00000000
     0.00000000     0.00000000     0.00000000
  -193.12928041   -90.48604552     0.00000000
   -92.16843569    89.36462624     0.00000000
   -63.09646472    63.17195427     0.00000000
  -145.57081681    45.95583452     0.00000000
  -165.18170371   102.24434748     0.00000000
  -109.95922855   163.09227848     0.00000000
    41.82252117   143.56863592     0.00000000
    97.19968191   160.98506332     0.00000000
     0.00000000     0.00000000     0.00000000
  -164.45291849   -61.87450235     0.00000000
  -102.84192015   105.11939405     0.00000000
   -25.17435223    44.12585180     0.00000000
  -106.86384549    58.00826783     0.00000000
   -38.02700231   -30.95409668     0.00000000
    68.76531202     5.60827660     0.00000000
    97.28630522   177.64795222     0.00000000
   370.02045841    80.99711885     0.00000000
     0.00000000     0.00000000     0.00000000
  -195.64896878   -63.25234680     0.00000000
   -95.22360881    42.93231690     0.00000000
   -32.74696141    44.25605594     0.00000000
   -23.26847301    -3.48452117     0.00000000
   -98.38012066   -11.99324269     0.00000000
  -101.60608115  -104.67123000     0.00000000
    67.44109432   215.21377681     0.00000000
     0.00000000     0.00000000     0.00000000
     0.00000000     0.00000000     0.00000000
  -129.38022278   -64.70924370     0.00000000
   -83.63944138   -48.24896478     0.00000000
    70.35750748     7.98700066     0.00000000
   -64.81163480   -31.60157695     0.00000000
    94.98646679    -9.00940359     0.00000000
  -110.61797066    80.16383556     0.00000000
   101.87163264  -272.29072704     0.00000000
   219.32550182   243.27851612     0.00000000
     0.00000000     0.00000000     0.00000000
  -167.25872508   -64.23101252     0.00000000
  -111.68714962   -77.07598365     0.00000000
   -67.32327580   -61.37438821     0.00000000
   -82.83476748    -8.28636759     0.00000000
   -32.04702656   -81.25564965     0.00000000
   125.92315072   132.74888757     0.00000000
    10.47365465  -294.73342273     0.00000000
   -19.95065213   244.69204008     0.00000000
     0.00000000     0.00000000     0.00000000
  -130.25101303   -63.07591287     0.00000000
  -129.06200432   -88.58356071     0.00000000
  -137.62463603   -64.76917669     0.00000000
  -184.20675732   -60.82883894     0.00000000
   -94.30369009   -18.56996331     0.00000000
   -40.32136983   -35.10972302     0.00000000
    49.65506334    21.42422934     0.00000000
    27.83585619    65.77324078     0.00000000
     0.00000000     0.00000000     0.00000000
   -37.13337721   -70.21173697     0.00000000
   -69.60312100   -34.50765446     0.00000000
  -142.04010211   -50.47864301     0.00000000
  -238.62343497   -35.90765346     0.00000000
  -297.16040566   -27.72101046     0.00000000
  -354.56736572    40.91184909     0.00000000
  -400.66485566   136.03703130     0.00000000
  -320.38677057   280.73630898     0.00000000
     0.00000000     0.00000000     0.00000000
     0.00000000     0.00000000     0.00000000
     0.00000000     0.00000000     0.00000000
     0.00000000     0.00000000     0.00000000
     0.00000000     0.00000000     0.00000000
     0.00000000     0.00000000     0.00000000
     0.00000000     0.00000000     0.00000000
     0.00000000     0.00000000     0.00000000
     0.00000000     0.00000000     0.00000000
     0.00000000     0.00000000     0.00000000
     0.00000000     0.00000000     0.00000000
     0.00000000     0.00000000     0.00000000
     0.00000000     0.00000000     0.00000000
     0.00000000     0.00000000     0.00000000
     0.00000000     0.00000000     0.00000000
     0.00000000     0.00000000     0.00000000
     0.00000000     0.00000000     0.00000000
     0.00000000     0.00000000     0.00000000
     0.00000000     0.00000000     0.00000000
    25.28448322   -51.95070465    73.91380502
   -14.24138631     1.12995734   -78.91177138
   -34.49213673    15.57436221    46.21442089
   -31.30842657    13.77989986    37.59959307
  -153.85924541    42.66705456    62.00335891
  -233.91555369    16.76106250   -29.33926412
  -344.70418230   -14.92803902   -53.67447136
  -597.82895623  -102.26134422   -60.40186053
     0.00000000     0.00000000     0.00000000
    62.96752314   -22.11837910   152.65167483
    15.98341748   -48.20732048  -102.14207523
   -19.62108996    41.14393922    47.51229207
   -69.55492780    63.01312112    23.24925275
   -62.42003461   -30.78993432    15.17777555
   -76.50180816    79.56208641   -83.75639656
  -169.23238272   119.94382657  -150.40994834
   189.30018260   -27.46677782  -186.37500866
     0.00000000     0.00000000     0.00000000
    84.46950004   -49.80145617    66.34123099
    12.42443046   -57.03809617   -79.56391961
   -73.63596619   109.99394924    60.19573405
    12.38148557    18.36190989    -3.24939709
   -65.63888845     5.72665170    39.35717370
    68.84141358  -138.21663155    51.79359615
   167.01459107   205.82009468  -115.12806434
     3.99112923   -83.55364660  -102.06173036
     0.00000000     0.00000000     0.00000000
    36.28065501   -88.01644583    99.71089982
   -45.89630191   -30.27319465   -83.36446037
     6.00532553    83.97661567    53.37628137
   -42.57160522    50.30794311   -14.72287493
     8.95181202   -25.22753657    82.03423908
    13.49902240  -135.07594146   -78.41267335
   111.31109222    97.77878139    23.89666865
   330.81437155   -20.01991327  -129.31216781
     0.00000000     0.00000000     0.00000000
   -21.34293459   -68.06688910    87.08806727
   -23.07442411   -61.65813763   -48.49679008
   -49.44730674    83.20070936    62.77778981
    42.98531499    44.95758060   -11.36781733
   -43.59072042   -11.77097812    12.55803136
   -72.94747985   -41.64895478   -99.73894707
   -15.31693346    85.88217564     4.03932834
     0.00000000     0.00000000     0.00000000
     0.00000000     0.00000000     0.00000000
    36.11923311   -64.92566412    95.51306894
   -21.46941582   -71.72492323   -59.75375366
     7.96843153    62.13317885    56.65238405
    51.56671031    18.18930665     1.92090881
    63.25915853     2.71416416    30.82981241
   -34.35861960   102.33771821   -41.85530112
    92.89811627  -210.76772218    36.51591933
   151.90015635   210.11816476   -77.80156154
     0.00000000     0.00000000     0.00000000
   -27.05863264   -80.14087762    60.57656042
   -83.83969459   -71.45361863   -50.88284423
   -75.84018115   -40.63241106    63.55233013
    70.00521672    24.24486720   -17.52656791
   -83.86488656   -42.62699577    16.23727685
   127.52969711   164.85889056   -61.15407611
    40.93050906  -291.57200453   -67.49685368
   -20.30239926   280.95250053   -96.79986434
     0.00000000     0.00000000     0.00000000
   -17.14141192   -31.98281332    86.86146292
  -117.61860222   -90.23866096   -41.95147921
  -149.17475739   -58.02350574    43.59818225
  -158.68263288   -59.94033016   -25.68205109
  -104.92598587    14.03340894     2.33444041
   -54.89761122   -14.16838853   -73.24531632
    51.02249248   -12.92635918    96.60966102
    58.92690215    74.17140023  -220.32502512
     0.00000000     0.00000000     0.00000000
   -12.21981238    25.04272509     7.56827284
   -84.56070224   -58.61220584    -1.91246106
  -159.48944256   -44.75936539    29.25166475
  -199.22695088   -37.79494699     3.15378450
  -284.40782294   -28.73542915    12.74166621
  -286.95432965    43.23851299    -9.94836820
  -343.74951351   150.88628092   -19.80991304
  -308.08883354   274.50530640   -11.21924118
     0.00000000     0.00000000     0.00000000
     0.00000000     0.00000000     0.00000000
     0.00000000     0.00000000     0.00000000
     0.00000000     0.00000000     0.00000000
     0.00000000     0.00000000     0.00000000
     0.00000000     0.00000000     0.00000000
     0.00000000     0.00000000     0.00000000
     0.00000000     0.00000000     0.00000000
     0.00000000     0.00000000     0.00000000
     0.00000000     0.00000000     0.00000000
     0.00000000     0.00000000     0.00000000
     0.00000000     0.00000000     0.00000000
     0.00000000     0.00000000     0.00000000
     0.00000000     0.00000000     0.00000000
     0.00000000     0.00000000     0.00000000
     0.00000000     0.00000000     0.00000000
     0.00000000     0.00000000     0.00000000
     0.00000000     0.00000000     0.00000000
     0.00000000     0.00000000     0.00000000
    62.11864795    -1.87494649    74.89590887
    58.79358037   -29.55658858    -4.29001332
    42.86740053   -10.20305138     1.28428037
    36.99710287    31.88089531    70.75651303
   110.58802008    -5.38626231    19.00802899
   123.57161941    21.70507956   -44.81811557
  -107.82505652    -2.49038008   -15.67943242
  -655.74290717   -63.83737432   -54.13731015
     0.00000000     0.00000000     0.00000000
    60.67086679   -28.82346493    59.96559396
    95.70367141   -58.36514324    20.22999140
    66.90184833     0.87669751    -5.23403938
    62.93905691    25.53245975    53.87406048
    70.54953144    33.48223243     9.55590542
   161.85889426   -89.18750842    16.46354583
   -54.26752819   175.65777534   -71.54487873
     9.69990840   -43.64723641  -221.22517682
     0.00000000     0.00000000     0.00000000
    36.38265827   -44.65302755    72.39240220
    83.10581069   -92.15991368     3.22359641
    29.45402586    54.67473297     4.45434761
    57.57903471   -38.41750836    23.74217378
   107.95961138   106.49779524     3.48600098
    81.01917742  -144.70117093    26.44048661
   175.27787078   248.45632024  -114.63501418
   -51.01047134  -172.36256845  -160.39826268
     0.00000000     0.00000000     0.00000000
    33.42183426   -66.98180748    65.48055250
    24.20482096   -82.87533731    -4.38015156
    40.45941691    46.18078614    17.00691000
    41.05261802   -12.29371996   -19.02060420
    67.41757181    78.70893596    70.43939340
   114.89438671   -91.45256707  -133.83748929
   142.47812255   114.99232248    50.96400708
   297.50548880   -61.71888600  -168.60226203
     0.00000000     0.00000000     0.00000000
    -1.54992703   -64.59108351    88.40094489
    12.56001409   -87.59525308    -8.78984775
   -11.74286922    47.43005571    25.97598903
    33.65904538     0.07746127    -0.96778015
    83.19484483    46.24875175     2.68333670
   -13.40046513   -54.88279834  -101.75020332
    28.11954998    27.23533645   -66.46047234
     0.00000000     0.00000000     0.00000000
     0.00000000     0.00000000     0.00000000
    40.18645000   -57.04625667    68.61663854
   -25.18415379   -82.05606525    -1.26361891
    36.38894271     6.17025567    46.31381083
     4.40687123    36.25107754   -19.52684369
   110.66285236   -40.01403268    57.12547971
     7.32521904   149.69301425  -106.24380404
   129.85411667  -227.31806846    -7.22045609
   106.69472141   212.87646412  -133.03341465
     0.00000000     0.00000000     0.00000000
   -36.73775520   -61.71695446    69.77704263
   -58.22353117   -70.42314007     8.80853176
   -46.43568765   -57.08139101    23.00404243
    60.80707951    52.44541935    -0.99149197
    40.96480569   -36.85626649    59.58807487
    54.56186143    97.06005521   -62.57307888
   131.73552299  -234.00826621   -87.95776746
    52.28612893   261.74277733  -183.73250311
     0.00000000     0.00000000     0.00000000
   -10.46285032   -21.92054150    43.57050152
   -82.96337402   -79.01475763    19.19754761
  -101.74523769   -52.22627452    10.59383872
  -121.11500855   -46.86005981    25.13517909
   -71.26609988    21.39455690     0.55287445
  -158.59211960   -14.60669868   -53.55382877
   -51.62622307    -4.45237396   -93.68119055
    62.52462913   143.14013611  -236.89429045
     0.00000000     0.00000000     0.00000000
    -8.32885309   -27.06129105    42.36494494
   -60.54530527   -34.50695552    22.59283908
  -113.07011553   -55.80517801    21.32269390
  -177.21142120   -30.17135972    26.62444589
  -247.14987926   -31.81068614    11.59284195
  -305.99078941    65.62891421    15.35584041
  -369.33046076   158.13507610     6.16927997
  -351.27082867   239.02359472    21.55007090
     0.00000000     0.00000000     0.00000000
     0.00000000     0.00000000     0.00000000
     0.00000000     0.00000000     0.00000000
     0.00000000     0.00000000     0.00000000
     0.00000000     0.00000000     0.00000000
     0.00000000     0.00000000     0.00000000
     0.00000000     0.00000000     0.00000000
     0.00000000     0.00000000     0.00000000
     0.00000000     0.00000000     0.00000000
     0.00000000     0.00000000     0.00000000
     0.00000000     0.00000000     0.00000000
     0.00000000     0.00000000     0.00000000
     0.00000000     0.00000000     0.00000000
     0.00000000     0.00000000     0.00000000
     0.00000000     0.00000000     0.00000000
     0.00000000     0.00000000     0.00000000
     0.00000000     0.00000000     0.00000000
     0.00000000     0.00000000     0.00000000
     0.00000000     0.00000000     0.00000000
     7.31986162    -7.27021897    10.61664762
    77.61133376   -35.34472763    33.56866252
    79.63058270   -10.99453892    -2.33823274
   100.59186416     9.82445986    51.80974068
   119.42488931    -8.26893070   -17.86432769
   106.31457761     6.28986619   -14.77604554
   220.77953812    -7.78342830    -8.45115538
  -515.72927177    16.01941390   -43.91651920
     0.00000000     0.00000000     0.00000000
    27.60799464   -12.12828924    49.10422867
    95.91883921   -65.25963746    20.27656889
    78.92236869    10.09249478    18.57937459
   130.89457974   -31.35090599    14.96807905
    79.69510542    40.51798759    16.57165024
   181.52438998   -29.52905639   -17.78377528
    74.99627493    68.61232831    80.12952832
    36.56867155   160.59552051  -194.56628192
     0.00000000     0.00000000     0.00000000
    14.44720921   -22.91215457    47.62436031
    75.42686266   -91.58077039    11.65541122
    70.48984818    54.10789457    17.73952015
    85.57153834   -89.11757751    -8.00422027
   107.64083214   107.53912092     3.41966352
   111.31589231  -126.99002224   -43.81132333
    67.28690729   270.12044804   -89.37497167
   -46.07340751   -55.02838648  -153.00495353
     0.00000000     0.00000000     0.00000000
    55.31117994   -51.35929052    70.17583060
    27.94048196   -69.97053101    -1.66745773
    79.02605005     3.49308301    34.50115694
    61.94223457   -47.43980943   -47.21087849
   105.98954502    44.44549329    46.54039028
    87.31452766   -84.82373347   -61.19274542
   241.05787148   135.01426411    29.29116973
   290.43999021   -55.40936718   -66.71230975
     0.00000000     0.00000000     0.00000000
    -1.25853702   -48.10592035    53.55946416
    48.78321287   -60.35955617    10.73818094
    32.58194197   -44.14696861    33.45333194
    68.71137722   -25.04760229   -20.65197258
    73.98977735     7.80536519    18.29259055
   -34.55207941   -14.45768159   -87.67506679
   -24.44988492   147.30344869  -170.89958487
     0.00000000     0.00000000     0.00000000
     0.00000000     0.00000000     0.00000000
    13.63975543   -47.94104536    64.28625458
     8.01029305   -61.01239518    17.96879602
    33.25720624   -64.82091212    43.50146771
    51.26745160   -10.11493081   -34.44355521
    74.61631290   -41.69045977    27.76272219
    68.88538307    96.76960527   -72.77122198
    37.68801765   -86.30585048    52.98946178
    70.42982871   259.56027817  -135.04773731
     0.00000000     0.00000000     0.00000000
   -21.54554199   -46.66545829    48.17048626
    22.12776019   -53.28024009    28.67476380
   -26.04208924   -78.50280207    22.69419664
    56.25424060   -24.26859802   -17.40869334
    26.85873376   -30.07427983    50.91582381
   101.78278718   114.25503278   -39.13151031
    38.06544643  -218.76329551   -72.64043372
    46.88727260   307.22514163  -263.61851332
     0.00000000     0.00000000     0.00000000
     5.98228302   -19.47831792    59.01554172
    -1.50354238   -60.65988403    30.20657346
   -33.72820983   -44.38939816    31.98579672
   -46.24185454   -77.65916238    21.36077319
    -0.11204264    29.07924069    41.83673948
    81.50486221    -4.10225947   -55.03507376
  -105.51578787   -39.17236050   -67.06205472
   -89.58006050   174.78725904  -220.79847875
     0.00000000     0.00000000     0.00000000
     5.17338226    -9.01624268    38.53130871
    13.23876825   -27.24861593    38.81566614
   -53.61544639   -37.86196557    28.72558887
   -73.70393392   -31.23737632    24.41282773
  -142.16657258   -22.78609108    43.27071417
  -166.52134983    -6.03720515    15.69032665
  -302.54426009   108.33172690    73.88695259
  -435.39332396   211.08409155    36.54171105
     0.00000000     0.00000000     0.00000000
     0.00000000     0.00000000     0.00000000
     0.00000000     0.00000000     0.00000000
     0.00000000     0.00000000     0.00000000
     0.00000000     0.00000000     0.00000000
     0.00000000     0.00000000     0.00000000
     0.00000000     0.00000000     0.00000000
     0.00000000     0.00000000     0.00000000
     0.00000000     0.00000000     0.00000000
     0.00000000     0.00000000     0.00000000
     0.00000000     0.00000000     0.00000000
     0.00000000     0.00000000     0.00000000
     0.00000000     0.00000000     0.00000000
     0.00000000     0.00000000     0.00000000
     0.00000000     0.00000000     0.00000000
     0.00000000     0.00000000     0.00000000
     0.00000000     0.00000000     0.00000000
     0.00000000     0.00000000     0.00000000
     0.00000000     0.00000000     0.00000000
    18.43387259    -5.05817114    16.47413703
    70.60659505   -27.01094869    16.09819495
    95.44398538    -3.23568135    25.13426592
    74.24751864     1.91685752     8.07741019
   112.32284553    -5.98096936     4.86248663
    56.14436786    34.17274487    -1.99363894
   190.75357688     9.12445827   -31.34129895
  -226.37590116    30.34493596    40.54071586
     0.00000000     0.00000000     0.00000000
    37.86533882   -16.27659936    30.66346005
    74.58344753   -45.63073397     0.97949658
    79.31494016    17.08235493    38.70536698
    96.70538542   -21.98023854   -16.16886048
    90.69315133    33.35631754    46.68886544
   104.97338915   -28.85205106   -85.08949775
   132.00316184    72.17599411    68.62973986
    49.00949058   233.59370908   -98.10918533
     0.00000000     0.00000000     0.00000000