# vtk DataFile Version 3.0
Example VTK
ASCII
DATASET UNSTRUCTURED_GRID
POINTS  1313 float
 -0.463812533505E+02 -0.152155875075E+02  0.000000000000E+00
 -0.386322571109E+02 -0.211205878362E+02  0.000000000000E+00
 -0.308904189540E+02 -0.248031337463E+02  0.000000000000E+00
 -0.231726079818E+02 -0.271151402619E+02  0.000000000000E+00
 -0.154593868343E+02 -0.283894065398E+02  0.000000000000E+00
 -0.774582121597E+01 -0.287503962412E+02  0.000000000000E+00
 -0.191342641218E-01 -0.282223357169E+02  0.000000000000E+00
  0.485806477600E+01 -0.266469127900E+02  0.000000000000E+00
  0.971612955200E+01 -0.247938255800E+02  0.000000000000E+00
 -0.488399940215E+02 -0.121717719792E+02  0.000000000000E+00
 -0.386732777347E+02 -0.168817148260E+02  0.000000000000E+00
 -0.309622103857E+02 -0.198279875092E+02  0.000000000000E+00
 -0.232580349108E+02 -0.216798169005E+02  0.000000000000E+00
 -0.155599857878E+02 -0.226996214633E+02  0.000000000000E+00
 -0.786762146174E+01 -0.229905676918E+02  0.000000000000E+00
 -0.193350818423E+00 -0.225580813756E+02  0.000000000000E+00
  0.501444066170E+01 -0.217552873836E+02  0.000000000000E+00
  0.102227213323E+02 -0.206774671395E+02  0.000000000000E+00
 -0.496959116292E+02 -0.912437724785E+01  0.000000000000E+00
 -0.387178829354E+02 -0.126462803606E+02  0.000000000000E+00
 -0.310181288918E+02 -0.148570531208E+02  0.000000000000E+00
 -0.233287836602E+02 -0.162486576084E+02  0.000000000000E+00
 -0.156443881753E+02 -0.170137606405E+02  0.000000000000E+00
 -0.796585667202E+01 -0.172263744516E+02  0.000000000000E+00
 -0.284789793993E+00 -0.169001451809E+02  0.000000000000E+00
  0.523697005438E+01 -0.168449047036E+02  0.000000000000E+00
  0.107577437229E+02 -0.165666480041E+02  0.000000000000E+00
 -0.502043227867E+02 -0.608424953436E+01  0.000000000000E+00
 -0.387609893872E+02 -0.841230374647E+01  0.000000000000E+00
 -0.310643709667E+02 -0.988710873807E+01  0.000000000000E+00
 -0.233830167549E+02 -0.108157500397E+02  0.000000000000E+00
 -0.157074440926E+02 -0.113258242226E+02  0.000000000000E+00
 -0.802858592624E+01 -0.114663361896E+02  0.000000000000E+00
 -0.332171847690E+00 -0.112493013419E+02  0.000000000000E+00
  0.550056273575E+01 -0.119280228658E+02  0.000000000000E+00
  0.113325328310E+02 -0.124588243620E+02  0.000000000000E+00
 -0.504816916089E+02 -0.302619539484E+01  0.000000000000E+00
 -0.387929219639E+02 -0.418546219865E+01  0.000000000000E+00
 -0.310987648382E+02 -0.491716411614E+01  0.000000000000E+00
 -0.234203964247E+02 -0.538075820911E+01  0.000000000000E+00
 -0.157483685641E+02 -0.563638749786E+01  0.000000000000E+00
 -0.806767923032E+01 -0.571056651781E+01  0.000000000000E+00
 -0.356237451521E+00 -0.560932003246E+01  0.000000000000E+00
  0.580530489044E+01 -0.701749640520E+01  0.000000000000E+00
  0.119474152994E+02 -0.835452523285E+01  0.000000000000E+00
 -0.505775492048E+02  0.188611453523E-01  0.000000000000E+00
 -0.388108414194E+02  0.458199867500E-01  0.000000000000E+00
 -0.311168836093E+02  0.511530767646E-01  0.000000000000E+00
 -0.234393998585E+02  0.566747681084E-01  0.000000000000E+00
 -0.157689638695E+02  0.552205372308E-01  0.000000000000E+00
 -0.808993892928E+01  0.448366885760E-01  0.000000000000E+00
 -0.381018203533E+00  0.264337467811E-01  0.000000000000E+00
  0.609943115794E+01 -0.213168691301E+01  0.000000000000E+00
  0.126666666700E+02 -0.428227116300E+01  0.000000000000E+00
 -0.505001538646E+02  0.308823367533E+01  0.000000000000E+00
 -0.388135984380E+02  0.427032947493E+01  0.000000000000E+00
 -0.311184062167E+02  0.502221830992E+01  0.000000000000E+00
 -0.234392026588E+02  0.549595706310E+01  0.000000000000E+00
 -0.157691225675E+02  0.575045304292E+01  0.000000000000E+00
 -0.809452761744E+01  0.580472206693E+01  0.000000000000E+00
 -0.398437047167E+00  0.566955383377E+01  0.000000000000E+00
  0.550903015167E+01  0.362681848071E+01  0.000000000000E+00
  0.114275725750E+02  0.154367217527E+01  0.000000000000E+00
 -0.502378006877E+02  0.613250490663E+01  0.000000000000E+00
 -0.388046706795E+02  0.850419920218E+01  0.000000000000E+00
 -0.311046866107E+02  0.999305922970E+01  0.000000000000E+00
 -0.234209240435E+02  0.109371422721E+02  0.000000000000E+00
 -0.157470634683E+02  0.114493481192E+02  0.000000000000E+00
 -0.807464097447E+01  0.115717888825E+02  0.000000000000E+00
 -0.385702059963E+00  0.113193947372E+02  0.000000000000E+00
  0.496773212431E+01  0.940635731554E+01  0.000000000000E+00
  0.103311035683E+02  0.735368884322E+01  0.000000000000E+00
 -0.497599406380E+02  0.919452780240E+01  0.000000000000E+00
 -0.387848801690E+02  0.127349618640E+02  0.000000000000E+00
 -0.310820234235E+02  0.149671729131E+02  0.000000000000E+00
 -0.233878135152E+02  0.163762960562E+02  0.000000000000E+00
 -0.156999531719E+02  0.171504636985E+02  0.000000000000E+00
 -0.802239350098E+01  0.173473514392E+02  0.000000000000E+00
 -0.334216126150E+00  0.169713160383E+02  0.000000000000E+00
  0.448068992466E+01  0.151795537868E+02  0.000000000000E+00
  0.929836942222E+01  0.131743921669E+02  0.000000000000E+00
 -0.489190859200E+02  0.122430281970E+02  0.000000000000E+00
 -0.387698865894E+02  0.169753413505E+02  0.000000000000E+00
 -0.310553329202E+02  0.199396694740E+02  0.000000000000E+00
 -0.233462855763E+02  0.218116297701E+02  0.000000000000E+00
 -0.156324915669E+02  0.228475378555E+02  0.000000000000E+00
 -0.792288672951E+01  0.231332889097E+02  0.000000000000E+00
 -0.234435240185E+00  0.226288291701E+02  0.000000000000E+00
  0.404440970053E+01  0.209368919058E+02  0.000000000000E+00
  0.832876170630E+01  0.189869322235E+02  0.000000000000E+00
 -0.464914735254E+02  0.153011490073E+02  0.000000000000E+00
 -0.387453840443E+02  0.212110656583E+02  0.000000000000E+00
 -0.310275420059E+02  0.249131242505E+02  0.000000000000E+00
 -0.233058126458E+02  0.272420340601E+02  0.000000000000E+00
 -0.155757376652E+02  0.285332636697E+02  0.000000000000E+00
 -0.781236629167E+01  0.289014136451E+02  0.000000000000E+00
  0.462466878933E-02  0.282864209039E+02  0.000000000000E+00
  0.371063367600E+01  0.266469127900E+02  0.000000000000E+00
  0.742126735300E+01  0.247938255800E+02  0.000000000000E+00
 -0.469961267978E+02 -0.150198631258E+02  0.237714601516E+01
 -0.386316073605E+02 -0.208593941236E+02  0.330278601474E+01
 -0.308902745677E+02 -0.244967651619E+02  0.387439738173E+01
 -0.231748042295E+02 -0.267818613876E+02  0.423364269030E+01
 -0.154628215910E+02 -0.280413243159E+02  0.442947078218E+01
 -0.774889258100E+01 -0.284005775384E+02  0.448710165579E+01
 -0.187753134387E-01 -0.278766743496E+02  0.440965931192E+01
  0.487577938100E+01 -0.263526544000E+02  0.396427664200E+01
  0.974471668600E+01 -0.245950934400E+02  0.257295191300E+01
 -0.488361921368E+02 -0.120985705701E+02  0.264437094078E+01
 -0.386677109493E+02 -0.167652679785E+02  0.367444547761E+01
 -0.309606340197E+02 -0.196976685598E+02  0.431484763852E+01
 -0.232557045578E+02 -0.215372281687E+02  0.471673928245E+01
 -0.155561620513E+02 -0.225514512754E+02  0.493789840050E+01
 -0.786166979182E+01 -0.228409309508E+02  0.500166552847E+01
 -0.185257288881E+00 -0.224097778211E+02  0.490888880522E+01
  0.503116269861E+01 -0.216303075480E+02  0.442791424129E+01
  0.102374868865E+02 -0.206196210985E+02  0.296346284523E+01
 -0.496431578785E+02 -0.910997707916E+01  0.285320800529E+01
 -0.387141376261E+02 -0.126167050701E+02  0.395856811007E+01
 -0.310119751119E+02 -0.148252640827E+02  0.465079195709E+01
 -0.233228410162E+02 -0.162149250600E+02  0.508663284890E+01
 -0.156363049213E+02 -0.169788314034E+02  0.532546425147E+01
 -0.795581925222E+01 -0.171911549495E+02  0.539169554695E+01
 -0.273366956155E+00 -0.168641403473E+02  0.529005824741E+01
  0.525101058249E+01 -0.168174957173E+02  0.478154991938E+01
  0.107660486618E+02 -0.165708319985E+02  0.323026475966E+01
 -0.501295460512E+02 -0.609093109650E+01  0.299429662369E+01
 -0.387562858196E+02 -0.842137608857E+01  0.415024458951E+01
 -0.310568768298E+02 -0.989852012991E+01  0.487532729601E+01
 -0.233745610891E+02 -0.108293617920E+02  0.533345435793E+01
 -0.156974128976E+02 -0.113403218445E+02  0.558398735758E+01
 -0.801737517352E+01 -0.114807062814E+02  0.565228363256E+01
 -0.320402138103E+00 -0.112623280943E+02  0.554556740689E+01
  0.551219371899E+01 -0.119418903463E+02  0.501238099325E+01
  0.113389298862E+02 -0.124737565425E+02  0.335749896392E+01
 -0.503970978777E+02 -0.303419019672E+01  0.306279667858E+01
 -0.387874288599E+02 -0.419953345679E+01  0.424253469593E+01
 -0.310906837079E+02 -0.493423038701E+01  0.498282578435E+01
 -0.234108524719E+02 -0.540028260350E+01  0.545106829953E+01
 -0.157373822786E+02 -0.565687788172E+01  0.570759237213E+01
 -0.805610392810E+01 -0.573064946649E+01  0.577729510565E+01
 -0.345356381478E+00 -0.562802599773E+01  0.566769693137E+01
  0.581397021718E+01 -0.703440061105E+01  0.511270959843E+01
  0.119529039872E+02 -0.835830942760E+01  0.333657340826E+01
 -0.504923548510E+02  0.191688548401E-01  0.305621954293E+01
 -0.388049342619E+02  0.433418819235E-01  0.423140248796E+01
 -0.311086875064E+02  0.475705293364E-01  0.496948932516E+01
 -0.234295867521E+02  0.521896625505E-01  0.543651264840E+01
 -0.157576256034E+02  0.506435033489E-01  0.569304070998E+01
 -0.807802548545E+01  0.410964500515E-01  0.576303344342E+01
 -0.369824559400E+00  0.240620406702E-01  0.565336540577E+01
  0.610696074620E+01 -0.213284092155E+01  0.508065562001E+01
  0.126666666700E+02 -0.428227116300E+01  0.316666666700E+01
 -0.504139153813E+02  0.309731947288E+01  0.306378159453E+01
 -0.388079191730E+02  0.427883143681E+01  0.424316512948E+01
 -0.311098393869E+02  0.503191941764E+01  0.498341046824E+01
 -0.234291766840E+02  0.550628432998E+01  0.545267052441E+01
 -0.157573017468E+02  0.576132278602E+01  0.571065500096E+01
 -0.808153088751E+01  0.581664262253E+01  0.578104432543E+01
[...]
POINT_DATA      1313
VECTORS velocities float 
    -3.86589261    -1.11758129     0.00000000
    -3.09018566    -1.56852796     0.00000000
    -2.37314598    -1.75787093     0.00000000
    -1.78265993    -1.70998506     0.00000000
    -1.23510175    -1.54445250     0.00000000
    -0.68978367    -1.22958367     0.00000000
    -0.08990093    -0.70146745     0.00000000
     0.00000000     0.00000000     0.00000000
     0.00000000     0.00000000     0.00000000
    -4.16807477    -0.88968379     0.00000000
    -4.43459881    -1.33653324     0.00000000
    -4.49152390    -1.61228131     0.00000000
    -4.02782092    -2.03783935     0.00000000
    -3.45123225    -2.04364341     0.00000000
    -2.17936094    -2.38768857     0.00000000
    -1.19510083    -1.28381543     0.00000000
    -0.21657566    -0.69943684     0.00000000
     0.56473264     0.11194516     0.00000000
    -4.46604323    -0.65201387     0.00000000
    -5.73906829    -1.02833075     0.00000000
    -6.02276246    -1.66672502     0.00000000
    -6.50741912    -2.01261852     0.00000000
    -5.77209378    -3.38822979     0.00000000
    -4.65255411    -3.49174464     0.00000000
    -2.32974212    -3.33725976     0.00000000
    -0.57173470    -1.44391970     0.00000000
     0.29552386    -0.50002983     0.00000000
    -4.67930848    -0.42885619     0.00000000
    -6.33202651    -0.80407587     0.00000000
    -7.80366679    -1.26242036     0.00000000
    -8.01379558    -2.49057144     0.00000000
    -9.21971712    -3.36819766     0.00000000
    -8.04822695    -6.36323848     0.00000000
    -5.19856639    -5.72317375     0.00000000
    -2.26601030    -3.77871410     0.00000000
     0.03769351    -0.08236941     0.00000000
    -4.81278543    -0.15214198     0.00000000
    -7.27466115    -0.38518600     0.00000000
    -8.26987457    -1.05954818     0.00000000
   -10.50808427    -1.93649249     0.00000000
   -10.98594150    -4.03139069     0.00000000
   -14.33710472    -6.01227545     0.00000000
   -12.69112315   -12.49944570     0.00000000
    -4.35401646    -7.26089103     0.00000000
    -1.62908228     0.29957346     0.00000000
    -4.88455133     0.12142646     0.00000000
    -7.19251597     0.04489251     0.00000000
    -9.54517451    -0.51664197     0.00000000
   -10.64684900    -1.45438414     0.00000000
   -14.54615009    -3.12473835     0.00000000
   -16.66248333    -5.73370575     0.00000000
   -28.85900144   -10.32620006     0.00000000
   -21.46679711   -20.21583876     0.00000000
     0.00000000     0.00000000     0.00000000
    -4.90161542     0.44281904     0.00000000
    -7.40614003     0.44673519     0.00000000
    -9.05703694     0.20224614     0.00000000
   -11.63091043    -0.72668215     0.00000000
   -14.43296391    -1.53158427     0.00000000
   -20.91112114    -3.90567225     0.00000000
   -29.64182212    -4.91952425     0.00000000
   -50.57282347   -14.23162523     0.00000000
   -50.67177392   -17.23480707     0.00000000
    -4.85427867     0.71396647     0.00000000
    -6.74254799     0.99428083     0.00000000
    -9.29558603     0.66660286     0.00000000
    -9.93540865     0.62723193     0.00000000
   -14.82122210    -0.56576533     0.00000000
   -17.75474301     0.12463426     0.00000000
   -33.50439527    -1.19640473     0.00000000
   -44.73813044     1.66170273     0.00000000
   -78.84924361   -12.80701592     0.00000000
    -4.77838193     1.00437565     0.00000000
    -6.16517970     1.33030789     0.00000000
    -7.56997130     1.53191330     0.00000000
    -8.49007307     1.18116516     0.00000000
   -11.87993167     1.57581103     0.00000000
   -14.06694814     0.93853293     0.00000000
   -20.97846981     4.34642833     0.00000000
   -32.12285188     3.08431730     0.00000000
   -52.69892044    10.26776477     0.00000000
    -4.57529299     1.27650207     0.00000000
    -5.01421884     1.79167281     0.00000000
    -5.83955877     1.82534969     0.00000000
    -5.71430214     2.26912277     0.00000000
    -7.43229080     1.98863167     0.00000000
    -8.02122749     2.48341355     0.00000000
   -10.89825574     2.75802091     0.00000000
   -13.14962827     6.23794818     0.00000000
   -20.97360480     3.60657219     0.00000000
    -4.40369811     1.55947000     0.00000000
    -3.64775668     2.05474288     0.00000000
    -3.02175806     2.32128360     0.00000000
    -2.42402981     2.35308398     0.00000000
    -1.76807819     2.24668656     0.00000000
    -1.00525099     1.94359774     0.00000000
     0.03648060     0.99613845     0.00000000
     0.00000000     0.00000000     0.00000000
     0.00000000     0.00000000     0.00000000
    -3.85110347    -1.06174683     0.15855491
    -3.08634288    -1.54333219     0.24065344
    -2.37253719    -1.73120363     0.24820783
    -1.79369620    -1.69145939     0.22923075
    -1.25295697    -1.53293136     0.18606456
    -0.70476401    -1.23543928     0.14305996
    -0.08877768    -0.70260297     0.08428070
     0.00000000     0.00000000     0.00000000
     0.00000000     0.00000000     0.00000000
    -4.19017969    -0.93184883     0.19222109
    -4.39571726    -1.30766616     0.33236591
    -4.33253693    -1.63803346     0.36672548
    -3.97960069    -1.97949873     0.35343540
    -3.27193136    -2.04095195     0.30701438
    -2.18333896    -2.32826254     0.26719855
    -1.07005890    -1.26602312     0.06548814
    -0.43312089    -0.67289199    -0.10135066
     0.72396976     0.02736856    -0.01302262
    -4.46409576    -0.68971332     0.23372086
    -5.63476562    -1.02134623     0.41474920
    -5.85501989    -1.63800555     0.42925540
    -6.24929134    -1.98008344     0.47397138
    -5.57899954    -3.24424911     0.47895782
    -4.38198637    -3.36360067     0.40617856
    -2.32673400    -3.19750301     0.18553464
    -0.42882814    -1.29516681    -0.04871205
     0.22314219    -0.48407939    -0.08164760
    -4.66375012    -0.43899425     0.26601802
    -6.23968277    -0.80754371     0.45907476
    -7.52515138    -1.23792154     0.49591113
    -7.76056873    -2.41241690     0.57085229
    -8.73933665    -3.21247831     0.68625325
    -7.66834847    -6.00121449     0.81394913
    -4.77347674    -5.28922826     0.63785472
    -2.09641673    -3.55727127     0.28378682
     0.07225483    -0.12394019    -0.09396116
    -4.78822317    -0.15110029     0.28325092
    -7.14042935    -0.38786668     0.47391333
    -8.02268233    -1.03858408     0.53445734
   -10.11151462    -1.85260338     0.66936271
   -10.45882978    -3.85052118     0.89854839
   -13.39150073    -5.58302774     1.41555965
   -11.55563290   -11.55131646     2.02321776
    -3.83386901    -6.69070651     1.04988986
    -1.31691344     0.26289713     0.07547185
    -4.86214702     0.12511060     0.29311443
    -7.06766441     0.03222507     0.46492546
    -9.24955056    -0.48251136     0.56196841
   -10.27050159    -1.41351875     0.70863661
   -13.80172647    -2.92819846     1.10838960
   -15.51166050    -5.40427922     1.92584061
   -26.04336057    -9.27921558     3.84241414
   -18.87324919   -18.34643712     4.38087753
     0.00000000     0.00000000     0.00000000
    -4.87180912     0.44307170     0.29119444
    -7.47199861     0.44813998     0.46378148
    -8.36988837     0.21553568     0.58294165
   -11.68339112    -0.68855221     0.70560421
   -13.03052158    -1.38188321     1.27601456
   -20.23999619    -3.74175254     2.12344609
   -24.78554772    -4.26754478     5.02819557
   -45.38070309   -12.50940300     8.44654017
   -45.68503653   -16.27780388     8.55542725
    -4.83480279     0.72405033     0.28760933
    -6.95221549     0.95196711     0.40574483
    -8.29471363     0.69487850     0.59455697
   -10.41119654     0.59994507     0.62960686
   -12.86203408    -0.46145408     1.31285292
   -17.95601926     0.02855871     1.82521880
   -27.41774435    -1.14589769     4.79422080
   -40.21756974     1.73753769     9.00054113
   -71.17323465   -11.75643682    10.11661705
    -4.75779125     1.01777151     0.27966725
    -6.46168170     1.31608858     0.35164889
    -6.46777896     1.49525445     0.56239492
    -9.18618628     1.22471726     0.56032850
    -9.91271608     1.47819095     1.11945422
   -14.72371023     0.88185682     1.28089098
   -16.02392219     3.86069593     3.25946097
   -29.99677020     2.35948495     6.02010007
   -45.93893694    10.38754713     7.68914145
    -4.54993194     1.26792730     0.27344475
    -5.17053868     1.71035130     0.26557038
    -5.14778888     1.79304229     0.47395442
    -6.15943462     2.20835235     0.48401230
    -6.22133210     1.85390372     0.67856447
    -8.43729885     2.32507339     0.78817498
    -8.62257774     2.30010844     1.20405772
   -12.18902887     5.51257427     2.77145605
   -17.68967288     3.18118381     3.14176017
    -4.30803294     1.44968348     0.23576673
    -3.64780794     1.99510696     0.32282861
    -3.00891081     2.25988076     0.35882678
    -2.39122667     2.28628775     0.38063893
    -1.71264274     2.16202293     0.41174606
    -0.92117432     1.79648232     0.37547818
     0.03567698     0.87768931     0.23472053
     0.00000000     0.00000000     0.00000000
     0.00000000     0.00000000     0.00000000
    -3.83345814    -0.98105282     0.33255700
    -3.11756771    -1.52325547     0.50546448
    -2.40892110    -1.71110620     0.52732165
    -1.84308007    -1.69406165     0.48242777
    -1.29811510    -1.55627243     0.40932326
    -0.74520251    -1.26518309     0.31967816
    -0.10119782    -0.74129751     0.19040956
     0.00000000     0.00000000     0.00000000
     0.00000000     0.00000000     0.00000000
    -4.14262847    -0.97861475     0.43851606
    -4.21661756    -1.24064773     0.61598310
    -4.14194780    -1.64545716     0.73148150
    -3.65096510    -1.85179290     0.69143638
    -3.13918054    -2.01678739     0.60602758
    -1.91066859    -2.16215315     0.50474309
    -1.13007096    -1.31240322     0.18591266
    -0.47480181    -0.51607871    -0.11226042
     0.42657145    -0.02203057    -0.16629533
    -4.43434480    -0.73611366     0.51229030
    -5.34212938    -0.96518483     0.71979069
    -5.41813894    -1.57043513     0.87697325
    -5.71425023    -1.86168180     0.87921227
    -4.98237191    -2.86967352     0.91240261
    -3.99583607    -3.10178860     0.72783675
    -1.93621654    -2.78130239     0.39441823
    -0.50735886    -1.08878672    -0.07051729
     0.33667280    -0.59227654    -0.15221696
    -4.61520359    -0.44505135     0.54618311
    -5.90173333    -0.77448115     0.84684833
    -6.84681023    -1.16434450     0.94384446
    -6.97566739    -2.16905834     1.09977598
    -7.69229204    -2.81417323     1.20590225
    -6.55279060    -5.01137559     1.41346597
    -4.30534065    -4.47786467     1.03880258
    -1.55957674    -3.01459994     0.35952426
     0.01546959     0.07772813    -0.18642773
    -4.72883044    -0.15251496     0.57861630
    -6.68981926    -0.37878595     0.88029270
    -7.36879576    -0.94311972     1.02374892
    -8.94339766    -1.64171417     1.23076376
    -9.07619568    -3.28555471     1.57766217
   -11.01575556    -4.51196465     2.28098579
    -8.73447036    -9.00988568     3.06449108
    -2.67722922    -5.32020668     1.55047237
    -0.67737400    -0.11868445     0.15291101
    -4.79728286     0.12558711     0.58409574
    -6.65755297     0.02791411     0.89764167
    -8.39192348    -0.43048622     1.04399313
    -9.11970654    -1.21972577     1.32725621
   -11.81597973    -2.46233015     1.88455084
   -12.32749253    -4.41382187     3.07470134
   -19.46691494    -6.74341754     5.64585828
   -13.26941140   -13.88772428     5.94142629
     0.00000000     0.00000000     0.00000000
    -4.81712598     0.44093718     0.58886091
    -6.79937264     0.41531202     0.90300275
    -7.96208769     0.20896739     1.00788327
    -9.83395326    -0.53079500     1.45649125
   -11.55084357    -1.19334364     1.89419412
   -15.47688541    -3.00816213     3.75830978
   -17.40580185    -3.44301037     6.55468702
   -29.08352651    -8.05148812    10.91447695
   -33.38754454   -12.93706166    14.13524909
    -4.78491483     0.70786630     0.58198254
    -6.24133396     0.89296846     0.87305427
    -8.05355426     0.64302991     0.90282891
    -8.46709606     0.64417712     1.55662626
   -11.76135269    -0.43397831     1.61285729
   -12.94912301     0.01227495     3.87022117
   -21.81241556    -1.55229102     5.53339245
   -20.95621944     1.93653764    11.59188946
   -53.58998109    -9.04907788    18.20049527
    -4.68337361     1.01672983     0.58950626
    -5.64835734     1.14532950     0.76288907
    -6.59481832     1.44346514     0.87417665
    -7.24683849     1.16886816     1.40017983
    -9.52535052     1.26347097     1.36419336
   -10.49214744     0.56860245     2.92080777
   -13.51788579     2.54015834     3.86251622
   -16.32234143     0.98934067     6.99674466
   -34.17468821     8.74075994    13.65218301
    -4.42196475     1.21635211     0.53489802
    -4.61459947     1.57887604     0.70039966
    -5.35975183     1.68264810     0.75373377
    -4.87275723     2.05055191     1.17062013
    -6.18231549     1.66735627     1.04177702
    -6.04819544     1.80485833     1.65633240
    -8.13337901     1.55174747     1.93299717
    -6.77979505     4.09322976     2.71205200
   -12.07256322     1.75120578     4.99137334
    -4.24203022     1.31944984     0.40101713
    -3.64812132     1.88371262     0.58913799
    -2.99595607     2.14355502     0.67189578
    -2.34251923     2.16432119     0.72083938
    -1.62760135     2.01073554     0.74396227
    -0.86050792     1.61782569     0.64519737
     0.02354027     0.77143856     0.36449663
     0.00000000     0.00000000     0.00000000
     0.00000000     0.00000000     0.00000000
    -3.82552110    -0.89481567     0.50203505
    -3.15414296    -1.45898311     0.76782180
    -2.45517456    -1.65370303     0.80528922
    -1.88504652    -1.65928275     0.75161536
    -1.33031328    -1.53934549     0.65761025
    -0.76841111    -1.25129463     0.52677243
    -0.10600732    -0.74877401     0.31808373
     0.00000000     0.00000000     0.00000000
     0.00000000     0.00000000     0.00000000
    -4.06908181    -0.86741425     0.65237605
    -3.99315480    -1.19111301     0.89842219
    -3.71941352    -1.57029251     1.07131314
    -3.30467679    -1.69184891     1.00141395
    -2.69460955    -1.86003674     0.90037456
    -1.74306839    -1.92333373     0.71878218
    -0.78001835    -1.19941562     0.30600590
    -0.60138006    -0.46518453     0.05835906
     0.04367566    -0.05833931    -0.26983801
    -4.31675365    -0.70663182     0.78028653
    -4.78897305    -0.89083192     0.98353744
    -4.77486909    -1.44462683     1.27843461
    -4.78536544    -1.62771197     1.23707762
    -4.14963227    -2.36067874     1.22344461
    -3.21707295    -2.53030836     0.99964314
    -1.62941617    -2.32486361     0.56130075
    -0.31051489    -0.72342748    -0.08329377
     0.33798229    -0.46968353    -0.06320318
    -4.49289883    -0.47018266     0.86000642
    -5.26673792    -0.66072699     1.12090934
    -5.77836807    -1.05427303     1.38448101
    -5.79451202    -1.80685306     1.47995004
    -6.00127192    -2.14862098     1.51785819
    -5.06345287    -3.73163501     1.68894112
    -3.21948408    -3.16481341     1.08893434
    -1.12429725    -2.33417496     0.34861601
    -0.07236656    -0.03336205    -0.32938793
    -4.60541707    -0.15989674     0.87565817
    -5.94897325    -0.33737884     1.21246046
    -6.13707234    -0.80863232     1.43981343
    -7.26204193    -1.27618544     1.64462504
    -6.91163716    -2.51867408     1.89342241
    -7.84601411    -2.99160993     2.41968061
    -5.63482216    -5.94424293     2.92773955
    -1.63385715    -3.37800018     1.24191120
     0.03673653    -0.20271164     0.13378002
    -4.65423089     0.11163091     0.86816967
    -5.86218807     0.02567532     1.22777021
    -7.05933567    -0.32256195     1.48096336
    -7.22027292    -0.97174289     1.70993442
    -8.96797371    -1.71300519     2.23192154
    -8.26001638    -3.17235186     3.09543006
   -11.51110017    -3.64128485     4.86254236
    -7.14509313    -8.77565061     5.08955327
     0.00000000     0.00000000     0.00000000
    -4.67589892     0.39111388     0.89902776
    -6.18819372     0.37434081     1.21438980
    -6.24464081     0.21469799     1.52540801
    -8.21647830    -0.32528833     1.67844596
    -8.05407893    -0.86636991     2.50959316
   -11.03698580    -2.05596125     3.28059466
    -7.44648112    -2.32381566     6.01003479
   -16.88246628    -4.38471538     7.72869494
   -17.72433902    -6.36873686    11.71862419
    -4.64362438     0.66890551     0.92268894
    -5.66279582     0.77745499     1.06779381
    -6.39691849     0.64082985     1.55826807
    -7.04709029     0.58798847     1.58629346
    -8.42813432    -0.26209850     2.52570507
    -8.88960341    -0.10162149     2.96006507
   -11.78968586    -1.45645001     5.95938054
   -11.31102985     0.49958492     6.39095556
   -24.00430649    -4.29833340    17.56844106
    -4.52960580     0.93428631     0.85833453
    -5.36619517     1.03792446     1.02147713
    -5.03874200     1.36790111     1.53883986
    -6.47613285     0.92429886     1.36432823
    -6.44406424     1.25002893     2.42798110
    -8.27483184    -0.08600073     2.03173151
    -5.30913345     1.81413814     4.87372315
   -13.04363998    -1.14170153     3.68937900
   -13.49450637     6.25802864    11.77271562
    -4.31314061     1.08458290     0.70124909
    -4.54111846     1.45219968     0.91638109
    -4.25800549     1.56254035     1.31694656
    -4.71630790     1.78247580     1.29874565
    -4.09250981     1.41462501     1.70870005
    -5.35855288     1.37755067     1.62836710
    -3.43516014     0.67426085     2.07765705
    -6.02528346     2.66981072     2.83149225
    -5.53131249    -0.19119717     3.00454506
    -4.18590092     1.19432445     0.54984798
    -3.63569531     1.73308620     0.85398121
    -2.97230875     1.95915557     1.00436336
    -2.29747033     1.97002401     1.07706949
    -1.56568259     1.80720606     1.06812716
    -0.82187103     1.42952719     0.88716236
     0.01697866     0.68784997     0.47920708
     0.00000000     0.00000000     0.00000000
     0.00000000     0.00000000     0.00000000
    -3.83170512    -0.79263539     0.65916920
    -3.19200844    -1.34451360     1.01509704
    -2.50071452    -1.54530374     1.08515753
    -1.91722994    -1.57437467     1.03370236
    -1.34487273    -1.46977429     0.91977010
    -0.77794436    -1.19025838     0.73680116
    -0.11061991    -0.72462196     0.44735420
     0.00000000     0.00000000     0.00000000
     0.00000000     0.00000000     0.00000000
    -3.97570254    -0.71143165     0.80851209
    -3.65377744    -1.10074034     1.19091693
    -3.25370790    -1.39683966     1.33399376
    -2.63644303    -1.50042571     1.33833328
    -2.28080353    -1.54687209     1.13028949
    -1.17233287    -1.53403267     0.96091018
    -0.75432297    -0.97789276     0.45441108
    -0.00962819    -0.30526568     0.09773091
    -0.44180140    -0.07093186    -0.15965077
    -4.08331772    -0.57967933     0.94759202
    -4.10176597    -0.84309584     1.30171601
    -3.83804725    -1.19655841     1.56791969
    -3.56610329    -1.34043359     1.52938635
    -2.89126378    -1.67612114     1.46287452
    -2.29767845    -1.74394632     1.12567867
    -0.75215910    -1.58749312     0.75501535
    -0.48800162    -0.32921666    -0.12747587
     0.56097055    -0.35582413    -0.05862192
    -4.22281234    -0.44045520     1.09928384