# vtk DataFile Version 3.0
Example VTK
ASCII
DATASET UNSTRUCTURED_GRID
POINTS  5664 float
 -0.102400000000E+01 -0.184530000000E+01  0.176380000000E+00
 -0.101600000000E+01 -0.140880000000E+01 -0.248980000000E+00
 -0.942500000000E+00 -0.892430000000E+00 -0.561990000000E+00
 -0.790500000000E+00 -0.321140000000E+00 -0.703340000000E+00
 -0.577100000000E+00  0.247240000000E+00 -0.662230000000E+00
 -0.331200000000E+00  0.776300000000E+00 -0.485570000000E+00
 -0.942500000000E+00 -0.170750000000E+01  0.273500000000E+00
 -0.922600000000E+00 -0.130590000000E+01 -0.800200000000E-01
 -0.849500000000E+00 -0.840410000000E+00 -0.343670000000E+00
 -0.714100000000E+00 -0.330950000000E+00 -0.469990000000E+00
 -0.529600000000E+00  0.176180000000E+00 -0.450340000000E+00
 -0.319000000000E+00  0.651860000000E+00 -0.322250000000E+00
 -0.861000000000E+00 -0.156980000000E+01  0.370630000000E+00
 -0.828700000000E+00 -0.120310000000E+01  0.889370000000E-01
 -0.756600000000E+00 -0.788400000000E+00 -0.125350000000E+00
 -0.637700000000E+00 -0.340760000000E+00 -0.236640000000E+00
 -0.482000000000E+00  0.105130000000E+00 -0.238450000000E+00
 -0.306700000000E+00  0.527420000000E+00 -0.158930000000E+00
 -0.779400000000E+00 -0.143210000000E+01  0.467750000000E+00
 -0.734900000000E+00 -0.110020000000E+01  0.257890000000E+00
 -0.663700000000E+00 -0.736380000000E+00  0.929720000000E-01
 -0.561400000000E+00 -0.350570000000E+00 -0.328470000000E-02
 -0.434400000000E+00  0.340730000000E-01 -0.265570000000E-01
 -0.294500000000E+00  0.402990000000E+00  0.438870000000E-02
 -0.697900000000E+00 -0.129440000000E+01  0.564880000000E+00
 -0.641000000000E+00 -0.997370000000E+00  0.426850000000E+00
 -0.570800000000E+00 -0.684370000000E+00  0.311290000000E+00
 -0.485000000000E+00 -0.360380000000E+00  0.230070000000E+00
 -0.386900000000E+00 -0.369820000000E-01  0.185330000000E+00
 -0.282300000000E+00  0.278550000000E+00  0.167710000000E+00
 -0.616400000000E+00 -0.115670000000E+01  0.662000000000E+00
 -0.547100000000E+00 -0.894500000000E+00  0.595810000000E+00
 -0.477900000000E+00 -0.632350000000E+00  0.529610000000E+00
 -0.408600000000E+00 -0.370190000000E+00  0.463420000000E+00
 -0.339300000000E+00 -0.108040000000E+00  0.397220000000E+00
 -0.270000000000E+00  0.154120000000E+00  0.331030000000E+00
 -0.272200000000E+01 -0.906360000000E+00  0.114360000000E+00
 -0.260200000000E+01 -0.415930000000E+00 -0.138260000000E+00
 -0.241200000000E+01  0.100080000000E+00 -0.264630000000E+00
 -0.217300000000E+01  0.610740000000E+00 -0.276730000000E+00
 -0.188700000000E+01  0.107470000000E+01 -0.138270000000E+00
 -0.157800000000E+01  0.138740000000E+01  0.212590000000E+00
 -0.262100000000E+01 -0.811720000000E+00  0.236470000000E+00
 -0.250200000000E+01 -0.373500000000E+00  0.363350000000E-01
 -0.232700000000E+01  0.851810000000E-01 -0.627900000000E-01
 -0.211300000000E+01  0.539580000000E+00 -0.705090000000E-01
 -0.186200000000E+01  0.956610000000E+00  0.422250000000E-01
 -0.159200000000E+01  0.125270000000E+01  0.324880000000E+00
 -0.252000000000E+01 -0.717080000000E+00  0.358580000000E+00
 -0.240200000000E+01 -0.331070000000E+00  0.210930000000E+00
 -0.224300000000E+01  0.702840000000E-01  0.139050000000E+00
 -0.205300000000E+01  0.468430000000E+00  0.135710000000E+00
 -0.183600000000E+01  0.838540000000E+00  0.222720000000E+00
 -0.160500000000E+01  0.111790000000E+01  0.437160000000E+00
 -0.242000000000E+01 -0.622440000000E+00  0.480690000000E+00
 -0.230300000000E+01 -0.288640000000E+00  0.385530000000E+00
 -0.215800000000E+01  0.553860000000E-01  0.340880000000E+00
 -0.199400000000E+01  0.397280000000E+00  0.341930000000E+00
 -0.181100000000E+01  0.720480000000E+00  0.403210000000E+00
 -0.161900000000E+01  0.983200000000E+00  0.549450000000E+00
 -0.231900000000E+01 -0.527800000000E+00  0.602790000000E+00
 -0.220300000000E+01 -0.246210000000E+00  0.560130000000E+00
 -0.207400000000E+01  0.404890000000E-01  0.542720000000E+00
 -0.193400000000E+01  0.326120000000E+00  0.548150000000E+00
 -0.178600000000E+01  0.602410000000E+00  0.583710000000E+00
 -0.163200000000E+01  0.848460000000E+00  0.661740000000E+00
 -0.221800000000E+01 -0.433160000000E+00  0.724900000000E+00
 -0.210300000000E+01 -0.203780000000E+00  0.734730000000E+00
 -0.198900000000E+01  0.255920000000E-01  0.744550000000E+00
 -0.187500000000E+01  0.254970000000E+00  0.754370000000E+00
 -0.176000000000E+01  0.484340000000E+00  0.764200000000E+00
 -0.164600000000E+01  0.713720000000E+00  0.774020000000E+00
 -0.422900000000E+01 -0.528700000000E+00  0.119270000000E+01
 -0.415500000000E+01 -0.683480000000E-01  0.811260000000E+00
 -0.402400000000E+01  0.425510000000E+00  0.494290000000E+00
 -0.379200000000E+01  0.950140000000E+00  0.317580000000E+00
 -0.346800000000E+01  0.145560000000E+01  0.322090000000E+00
 -0.309500000000E+01  0.189790000000E+01  0.483930000000E+00
 -0.410700000000E+01 -0.412090000000E+00  0.127650000000E+01
 -0.402500000000E+01  0.472660000000E-02  0.957240000000E+00
 -0.389700000000E+01  0.448340000000E+00  0.689490000000E+00
 -0.368900000000E+01  0.916580000000E+00  0.533940000000E+00
 -0.340800000000E+01  0.136950000000E+01  0.523370000000E+00
 -0.308600000000E+01  0.177190000000E+01  0.638670000000E+00
 -0.398400000000E+01 -0.295480000000E+00  0.136040000000E+01
 -0.389500000000E+01  0.778010000000E-01  0.110320000000E+01
 -0.377100000000E+01  0.471180000000E+00  0.884690000000E+00
 -0.358600000000E+01  0.883020000000E+00  0.750310000000E+00
 -0.334700000000E+01  0.128330000000E+01  0.724660000000E+00
 -0.307700000000E+01  0.164580000000E+01  0.793420000000E+00
 -0.386200000000E+01 -0.178860000000E+00  0.144430000000E+01
 -0.376500000000E+01  0.150880000000E+00  0.124920000000E+01
 -0.364400000000E+01  0.494010000000E+00  0.107990000000E+01
 -0.348300000000E+01  0.849470000000E+00  0.966670000000E+00
 -0.328600000000E+01  0.119720000000E+01  0.925950000000E+00
 -0.306800000000E+01  0.151980000000E+01  0.948160000000E+00
 -0.374000000000E+01 -0.622490000000E-01  0.152820000000E+01
 -0.363400000000E+01  0.223950000000E+00  0.139520000000E+01
 -0.351700000000E+01  0.516850000000E+00  0.127510000000E+01
 -0.338000000000E+01  0.815910000000E+00  0.118300000000E+01
 -0.322500000000E+01  0.111110000000E+01  0.112720000000E+01
 -0.305900000000E+01  0.139370000000E+01  0.110290000000E+01
 -0.361800000000E+01  0.543640000000E-01  0.161200000000E+01
 -0.350400000000E+01  0.297020000000E+00  0.154120000000E+01
 -0.339100000000E+01  0.539690000000E+00  0.147030000000E+01
 -0.327700000000E+01  0.782350000000E+00  0.139940000000E+01
 -0.316400000000E+01  0.102500000000E+01  0.132850000000E+01
 -0.305000000000E+01  0.126770000000E+01  0.125770000000E+01
 -0.553500000000E+01  0.809210000000E+00  0.183530000000E+01
 -0.541800000000E+01  0.123220000000E+01  0.146510000000E+01
 -0.520100000000E+01  0.168480000000E+01  0.118840000000E+01
 -0.488500000000E+01  0.213780000000E+01  0.103910000000E+01
 -0.447600000000E+01  0.253060000000E+01  0.108440000000E+01
 -0.404200000000E+01  0.273560000000E+01  0.139300000000E+01
 -0.539900000000E+01  0.878460000000E+00  0.192660000000E+01
 -0.527500000000E+01  0.125540000000E+01  0.162170000000E+01
 -0.507200000000E+01  0.165600000000E+01  0.139140000000E+01
 -0.478900000000E+01  0.205690000000E+01  0.126320000000E+01
 -0.443200000000E+01  0.240970000000E+01  0.129060000000E+01
 -0.405500000000E+01  0.261220000000E+01  0.152860000000E+01
 -0.526200000000E+01  0.947710000000E+00  0.201800000000E+01
 -0.513200000000E+01  0.127850000000E+01  0.177820000000E+01
 -0.494200000000E+01  0.162720000000E+01  0.159450000000E+01
 -0.469300000000E+01  0.197600000000E+01  0.148720000000E+01
 -0.438700000000E+01  0.228880000000E+01  0.149670000000E+01
 -0.406700000000E+01  0.248880000000E+01  0.166420000000E+01
 -0.512500000000E+01  0.101700000000E+01  0.210940000000E+01
 -0.498900000000E+01  0.130170000000E+01  0.193480000000E+01
 -0.481300000000E+01  0.159840000000E+01  0.179750000000E+01
 -0.459600000000E+01  0.189520000000E+01  0.171130000000E+01
 -0.434300000000E+01  0.216790000000E+01  0.170290000000E+01
 -0.408000000000E+01  0.236550000000E+01  0.179980000000E+01
 -0.498900000000E+01  0.108620000000E+01  0.220070000000E+01
 -0.484600000000E+01  0.132490000000E+01  0.209130000000E+01
 -0.468300000000E+01  0.156960000000E+01  0.200060000000E+01
 -0.450000000000E+01  0.181430000000E+01  0.193530000000E+01
 -0.429900000000E+01  0.204690000000E+01  0.190900000000E+01
 -0.409300000000E+01  0.224210000000E+01  0.193530000000E+01
 -0.485200000000E+01  0.115550000000E+01  0.229210000000E+01
 -0.470300000000E+01  0.134810000000E+01  0.224790000000E+01
 -0.455300000000E+01  0.154070000000E+01  0.220360000000E+01
 -0.440400000000E+01  0.173340000000E+01  0.215940000000E+01
 -0.425500000000E+01  0.192600000000E+01  0.211520000000E+01
 -0.410500000000E+01  0.211870000000E+01  0.207090000000E+01
 -0.652300000000E+01  0.214360000000E+01  0.313000000000E+01
 -0.627200000000E+01  0.250830000000E+01  0.277720000000E+01
 -0.599700000000E+01  0.287410000000E+01  0.244470000000E+01
 -0.570600000000E+01  0.323950000000E+01  0.212550000000E+01
 -0.530200000000E+01  0.357900000000E+01  0.194770000000E+01
 -0.480300000000E+01  0.373120000000E+01  0.214860000000E+01
 -0.636100000000E+01  0.220310000000E+01  0.317930000000E+01
 -0.612600000000E+01  0.252660000000E+01  0.287740000000E+01
 -0.587100000000E+01  0.285100000000E+01  0.259180000000E+01
 -0.560500000000E+01  0.317510000000E+01  0.231680000000E+01
 -0.524700000000E+01  0.347840000000E+01  0.215500000000E+01
 -0.481300000000E+01  0.363190000000E+01  0.229600000000E+01
 -0.620000000000E+01  0.226260000000E+01  0.322860000000E+01
 -0.598000000000E+01  0.254490000000E+01  0.297760000000E+01
 -0.574600000000E+01  0.282790000000E+01  0.273890000000E+01
[...]
POINT_DATA      5664
VECTORS Velocities float 
     0.00000000     0.00000000     0.00000000
     0.00000000     0.00000000     0.00000000
     0.00000000     0.00000000     0.00000000
     0.00000000     0.00000000     0.00000000
     0.00000000     0.00000000     0.00000000
     0.00000000     0.00000000     0.00000000
     3.62971842    -0.93890825    -0.21635000
     4.42083861    -0.88710309    -0.41164244
     4.52318069    -1.04797603    -0.46214129
     4.31242638    -1.21061396    -0.46602472
     3.81930056    -1.20271097    -0.56766455
     2.64327605    -0.86861908    -0.51855785
     6.17715294    -1.85365515    -0.88999404
     7.27367227    -1.92180335    -1.36654987
     7.54870417    -2.04121166    -1.65069842
     7.32922701    -2.08075788    -1.69992644
     6.61735637    -1.99182452    -1.59541931
     5.11469432    -1.45254118    -1.24241194
     8.22395247    -2.60003064    -1.54498779
     9.46014455    -2.81689578    -2.15552993
     9.93319810    -2.92555318    -2.48870180
     9.74227063    -2.88742356    -2.57298939
     8.88670806    -2.69196295    -2.41168870
     7.29015040    -2.10877603    -1.95168808
     9.84649621    -3.25231521    -2.15023877
    11.10782189    -3.53886894    -2.78768687
    11.66152727    -3.65039676    -3.18124867
    11.51296475    -3.58634255    -3.24623673
    10.66624698    -3.31723493    -3.04134782
     9.12970976    -2.76526125    -2.57574533
    11.11642939    -3.75358703    -2.70107914
    12.29956103    -4.09204184    -3.29392366
    12.83112662    -4.20547491    -3.63280529
    12.72695251    -4.13014789    -3.71158945
    12.00296487    -3.85896947    -3.52260737
    10.62520447    -3.33531955    -3.07283391
     0.00000000     0.00000000     0.00000000
     0.00000000     0.00000000     0.00000000
     0.00000000     0.00000000     0.00000000
     0.00000000     0.00000000     0.00000000
     0.00000000     0.00000000     0.00000000
     0.00000000     0.00000000     0.00000000
     1.75074834    -0.70968658    -1.06257657
     1.91335509    -0.92103283    -1.32197926
     2.31782604    -0.95374751    -1.53118082
     2.51993734    -0.82952004    -1.48553573
     2.48411805    -0.57388755    -1.18265396
     2.61177086    -0.62568647    -1.06610896
     3.91976584    -1.46211758    -1.74962723
     4.48865642    -1.76008747    -2.04931563
     5.10078045    -1.90430888    -2.18865624
     5.30985265    -1.81456901    -2.11994008
     5.01840122    -1.52871919    -1.88469114
     4.79582480    -1.56862602    -1.78334614
     5.87189069    -2.23926084    -2.41127123
     6.71896666    -2.56578617    -2.74574456
     7.36424067    -2.73279533    -2.93454916
     7.53911113    -2.67460610    -2.85717627
     7.19164289    -2.42450222    -2.58680376
     6.65327756    -2.33784015    -2.38855550
     7.62072867    -2.94586090    -3.02536166
     8.60035989    -3.30972624    -3.39938171
     9.25206370    -3.49691848    -3.57254686
     9.40039670    -3.44004792    -3.52781651
     8.99987967    -3.20967818    -3.26451854
     8.24311843    -2.97424921    -2.93364688
     9.10736454    -3.58126846    -3.56787397
    10.16312787    -3.97516474    -3.97572557
    10.74659232    -4.15041716    -4.16901388
    10.86986806    -4.11315339    -4.12812401
    10.48851267    -3.88155661    -3.87549688
     9.55236711    -3.51395296    -3.45372399
     0.00000000     0.00000000     0.00000000
     0.00000000     0.00000000     0.00000000
     0.00000000     0.00000000     0.00000000
     0.00000000     0.00000000     0.00000000
     0.00000000     0.00000000     0.00000000
     0.00000000     0.00000000     0.00000000
     2.21394556    -1.36989369    -0.90353225
     3.16874990    -1.64321202    -1.11568296
     3.43292459    -1.63399900    -0.97566639
     3.33615932    -1.54192046    -0.84403675
     2.86084122    -1.61632998    -0.71490268
     1.93609546    -1.14028065    -0.32823030
     3.78000510    -2.47485439    -1.95403759
     4.91618392    -2.88789106    -2.35240856
     5.30611567    -2.81980645    -2.39649453
     5.28679281    -2.66307742    -2.17505284
     4.95412507    -2.48182103    -1.74376340
     3.89080641    -1.80601778    -1.09989246
     5.27933562    -3.44083237    -2.89686995
     6.45171886    -3.94258076    -3.43847344
     7.02617171    -3.98185690    -3.55232287
     7.13102887    -3.75343349    -3.33598425
     6.73212510    -3.35486805    -2.81579573
     5.67831726    -2.55887135    -2.02606368
     6.61397654    -4.30729765    -3.76026359
     7.78957688    -4.86813544    -4.35424148
     8.43697269    -4.99031882    -4.58738701
     8.58877407    -4.78054625    -4.39945346
     8.22089393    -4.25715164    -3.85822292
     7.19444568    -3.40809632    -3.02849528
     7.80426922    -5.07228586    -4.52044697
     8.91740222    -5.66791459    -5.14023187
     9.56525358    -5.87595044    -5.41511217
     9.73628050    -5.70428972    -5.32473228
     9.39188729    -5.17545167    -4.84431893
     8.46236254    -4.28520194    -3.98193050
     0.00000000     0.00000000     0.00000000
     0.00000000     0.00000000     0.00000000
     0.00000000     0.00000000     0.00000000
     0.00000000     0.00000000     0.00000000
     0.00000000     0.00000000     0.00000000
     0.00000000     0.00000000     0.00000000
     0.82683890    -1.08483584    -1.46760057
     0.61315599    -0.92590974    -1.79461449
     0.55485799    -0.92667879    -1.94648628
     0.88847266    -1.08437409    -1.90098160
     1.55613891    -0.96360882    -1.79974507
     1.54664071    -1.08075560    -1.56278173
     2.13264957    -2.49712552    -2.74930564
     2.27858273    -2.67260840    -3.29035809
     2.54671786    -2.89887120    -3.52855810
     2.94051180    -3.00109198    -3.56451219
     3.15032748    -2.88527029    -3.31693486
     3.16881879    -2.78123546    -2.88290990
     3.24064534    -3.83094594    -3.92056394
     3.71021676    -4.34419355    -4.57298531
     4.11891135    -4.70768518    -4.95555092
     4.46872705    -4.88681914    -4.98189655
     4.65061961    -4.75800122    -4.65345339
     4.49631089    -4.48352086    -4.10748069
     4.26561884    -5.09468396    -4.92927188
     4.92486686    -5.86510833    -5.66032794
     5.45271044    -6.43331996    -6.06944227
     5.80507573    -6.65406778    -6.13733626
     5.85853772    -6.50624756    -5.79023445
     5.63375685    -6.00674925    -5.14076570
     5.17954136    -6.25311134    -5.78878323
     5.95380982    -7.22045390    -6.51517842
     6.50316677    -7.87340884    -6.93079963
     6.82468573    -8.16736905    -7.00340025
     6.86923947    -8.00377987    -6.70674188
     6.47009721    -7.28879271    -6.01253152
     0.00000000     0.00000000     0.00000000
     0.00000000     0.00000000     0.00000000
     0.00000000     0.00000000     0.00000000
     0.00000000     0.00000000     0.00000000
     0.00000000     0.00000000     0.00000000
     0.00000000     0.00000000     0.00000000
     1.05091970    -1.74660872    -0.81800000
     1.84052026    -2.98613379    -1.49764371
     2.16023123    -3.65557011    -1.77896033
     1.99138917    -3.58659091    -1.77878845
     1.28380784    -3.15011632    -1.39193349
     1.62626631    -3.75340907    -1.79403084
     1.68355316    -3.48007117    -1.89091096
     2.59874264    -5.07091974    -2.80849772
     3.02136086    -5.99400678    -3.38622596
     2.85295125    -6.09235621    -3.31395894
     2.42270455    -5.79171227    -2.90175724
     2.38863278    -6.37996581    -3.09601284
     2.41838708    -5.32576057    -2.91014445
     3.26131223    -6.97013243    -3.85129242
     3.73854863    -8.05810163    -4.40329614
     3.71463264    -8.36178024    -4.45886986
     3.27309450    -8.20306622    -4.11984551
     3.05657744    -8.43500065    -3.98930393
     3.08705948    -7.09960440    -3.82764353
     3.82073930    -8.67355075    -4.64186297
     4.25975053    -9.77233491    -5.18473890
     4.28772526   -10.24111900    -5.27810794
     3.99823029   -10.21373968    -5.02980092
     3.59961539   -10.02497422    -4.70753875
     3.69807537    -8.73156048    -4.59173123
     4.27910873   -10.17598656    -5.27277838
     4.63553747   -11.19913534    -5.70510178
     4.72182101   -11.75107381    -5.86642420
     4.52086745   -11.78779561    -5.71284188
     4.10053194   -11.23964887    -5.26794087
     0.00000000     0.00000000     0.00000000
     0.00000000     0.00000000     0.00000000
     0.00000000     0.00000000     0.00000000
     0.00000000     0.00000000     0.00000000
     0.00000000     0.00000000     0.00000000
     0.00000000     0.00000000     0.00000000
     0.14708303    -2.15317076    -0.91769876
     0.33153386    -2.44198297    -1.15109600
     0.42864324    -2.37970638    -1.41479037
     0.35318744    -2.50166631    -1.35243115
     0.23409580    -2.05912624    -0.92342416
    -0.26601703    -2.03819270    -0.36827991
     1.02843690    -4.64551346    -2.07817361
     1.38431865    -5.41909830    -2.52558485
     1.54118641    -5.70115479    -2.68432251
     1.40032521    -5.52942752    -2.56214925
     1.01181529    -4.83748460    -2.00100032
     0.55719677    -4.19589920    -1.31683127
     1.77944034    -6.86264880    -3.18868308
     2.20748464    -7.90749887    -3.69852969
     2.33358088    -8.27823061    -3.88595204
     2.18486155    -8.06675853    -3.68859064
     1.86952888    -7.22645628    -3.13235459
     1.30081515    -6.18605513    -2.45963175
     2.46341827    -8.80442467    -4.14498198
     2.87131371    -9.92818532    -4.67858779
     3.01413990   -10.42247977    -4.85141832
     2.90700198   -10.18956135    -4.69136458
     2.56435881    -9.29559641    -4.19993347
     1.98119216    -7.99902021    -3.46625127
     3.02314144   -10.40970842    -4.93053403
     3.41626107   -11.55616887    -5.43653799
     3.55360889   -12.03700099    -5.61968457
     3.46490090   -11.87152474    -5.48587296
     3.14529091   -11.04236371    -5.06099956
     2.55786102    -9.60610216    -4.33028151
     0.00000000     0.00000000     0.00000000
     0.00000000     0.00000000     0.00000000
     0.00000000     0.00000000     0.00000000
     0.00000000     0.00000000     0.00000000
     0.00000000     0.00000000     0.00000000
     0.00000000     0.00000000     0.00000000
     1.45455994    -2.49405977    -1.57561008
     1.54539755    -3.37498246    -1.96100156
     1.64797770    -3.80320450    -1.88422553
     1.74598881    -3.59274590    -1.79202175
     1.60655639    -3.05297739    -1.59900860
     1.86255874    -2.29245793    -1.93564117
     2.11642555    -4.67894409    -2.61048711
     2.29628559    -5.82214043    -3.10386995
     2.39667593    -6.44305590    -3.27938178
     2.49899836    -6.28051034    -3.11152193
     2.55686798    -5.53435096    -2.93939090
     2.63467427    -4.59569671    -3.01720491
     2.74193897    -6.79753649    -3.45272958
     2.99349684    -8.06642943    -4.00646583
     3.20425327    -8.78295971    -4.24318680
     3.31361820    -8.68542964    -4.19194787
     3.25213808    -7.91059202    -3.95250048
     3.29565585    -6.80824210    -3.76069610
     3.24679373    -8.71320703    -4.15305345
     3.57463471   -10.00343099    -4.67563948
     3.80792258   -10.72029756    -4.97994164
     3.90221618   -10.69715360    -4.96067250
     3.86769541    -9.99529091    -4.71441576
     3.79303651    -8.76800501    -4.38539161
     3.68080667   -10.38851417    -4.70724852
     4.02254500   -11.63593914    -5.20561528
     4.24905855   -12.28871287    -5.47299928
     4.34311069   -12.32790914    -5.51763335
     4.31291496   -11.72790172    -5.31718530
     4.17649559   -10.43079160    -4.90855888
     0.00000000     0.00000000     0.00000000
     0.00000000     0.00000000     0.00000000
     0.00000000     0.00000000     0.00000000
     0.00000000     0.00000000     0.00000000
     0.00000000     0.00000000     0.00000000
     0.00000000     0.00000000     0.00000000
    -0.17062006    -1.78073425    -0.17181481
     0.23669559    -2.63527202    -0.49578415
     0.60270889    -2.89286579    -0.93425482
     0.68594517    -2.90823017    -0.96528618
     0.59719062    -3.07383798    -0.89538585
    -0.09188893    -3.62530201    -0.30515226
     0.36607701    -4.36374710    -0.98322821
     0.99837473    -5.76786353    -1.61362374
     1.46306014    -6.37530499    -1.91439683
     1.60791624    -6.43917159    -2.01176400
     1.26071246    -6.25602427    -1.67872581
     0.73336818    -6.43023539    -1.04463981
     0.82977379    -6.74797453    -1.83425767
     1.49642646    -8.34619582    -2.47003932
     1.93562622    -9.10614316    -2.80997522
     2.05377764    -9.24175246    -2.79193580
     1.88339188    -8.99174579    -2.45654869
     1.31846494    -8.63600659    -1.83745962
     1.27399602    -8.95914641    -2.59691346
     1.84921372   -10.52606502    -3.20415813
     2.22984944   -11.40513683    -3.46829053
     2.38897730   -11.63998241    -3.47840358
     2.25658490   -11.26541893    -3.16612968
     1.83640403   -10.53128947    -2.56036778
     1.64154994   -10.86230054    -3.26051584
     2.11544566   -12.40356672    -3.76393640
     2.41688771   -13.28752782    -4.00713131
     2.55806358   -13.54759342    -3.99285066
     2.50421253   -13.16109610    -3.74377536
     2.19259878   -12.11427521    -3.20310911
     0.00000000     0.00000000     0.00000000
     0.00000000     0.00000000     0.00000000
     0.00000000     0.00000000     0.00000000
     0.00000000     0.00000000     0.00000000
     0.00000000     0.00000000     0.00000000
     0.00000000     0.00000000     0.00000000
     0.56902710    -3.10405679    -1.01801612
     0.57666092    -4.16541313    -1.14280702
     0.66043237    -4.37019401    -1.01788571
     0.73021785    -4.40529859    -1.05863046
     0.81338234    -3.90906433    -1.03018814
     1.46003558    -2.32024775    -1.02728021
     0.63460339    -5.49772791    -1.54503566
     0.73234192    -6.87175811    -1.75305559
     0.92713250    -7.40757978    -1.84271780
     1.14971511    -7.44387548    -1.80251732
     1.48521756    -6.92515368    -1.84688232
     1.68217682    -4.86961525    -1.68086138
     0.71844782    -7.82773672    -2.01791988
     0.84461327    -9.44064930    -2.23282474
     1.11160757   -10.28408935    -2.33457248
     1.41398314   -10.40055942    -2.37218850
     1.64461352    -9.62680352    -2.34607110
     1.85169342    -7.55828414    -2.15023984
     0.76629003    -9.94913816    -2.35186824
     0.92363231   -11.69474189    -2.54453790
     1.19267550   -12.69337431    -2.67556441
     1.43857540   -12.78305149    -2.68089826
     1.65811022   -11.97159799    -2.63509755
     1.79952881   -10.01985691    -2.47703866
     0.82358471   -11.82860565    -2.57620416
     0.96926941   -13.57916241    -2.74351975
     1.16586047   -14.55303811    -2.82973981
     1.36244678   -14.67777472    -2.86097892
     1.52726778   -13.90016774    -2.81708769
     1.69290039   -12.13747810    -2.68374014
     0.00000000     0.00000000     0.00000000
     0.00000000     0.00000000     0.00000000
     0.00000000     0.00000000     0.00000000
     0.00000000     0.00000000     0.00000000
     0.00000000     0.00000000     0.00000000
     0.00000000     0.00000000     0.00000000
    -0.70157367    -2.14692346    -0.13978798
    -0.32842481    -3.25804957    -0.37341416
    -0.16305710    -4.06605387    -0.49755191
     0.05556464    -4.53225717    -0.24134860
     0.31092594    -4.93521578    -0.31962460
    -0.68411981    -3.98060459     0.00879150
    -0.93758963    -5.25393887    -0.29082521
    -0.67915199    -7.12857637    -0.39801101
    -0.43074269    -8.38730618    -0.36101859
    -0.21848970    -9.07757825    -0.30777002
    -0.31415458    -8.87772576    -0.13530720
    -0.69178287    -7.57574665     0.05183464
    -1.09741538    -8.09024237    -0.26996702
    -0.83645644   -10.30224677    -0.35605916
    -0.60831322   -11.75312006    -0.30927039
    -0.46118840   -12.36467491    -0.16077861
    -0.45469089   -12.01884687     0.00039519
    -0.82466655   -10.49965862     0.13625649
    -1.15017735   -10.69496345    -0.22211413
    -0.92197614   -12.97457881    -0.24771088
    -0.75287426   -14.40250897    -0.14982399
    -0.59927828   -14.99450631    -0.03229968
    -0.59010640   -14.47898111     0.10841686
    -0.76073056   -12.95486740     0.22610617
    -1.12849566   -12.93876101    -0.12462487
    -0.95655451   -15.15125516    -0.06864315
    -0.80384082   -16.45455033     0.02790273
    -0.70098340   -16.88981164     0.14073356
    -0.64496963   -16.42171802     0.22589041
    -0.71628012   -14.92299007     0.26705900
     0.00000000     0.00000000     0.00000000
     0.00000000     0.00000000     0.00000000
     0.00000000     0.00000000     0.00000000
     0.00000000     0.00000000     0.00000000
     0.00000000     0.00000000     0.00000000
     0.00000000     0.00000000     0.00000000
    -0.06179390    -4.89752690     0.54965457
    -0.33043851    -5.12629024     0.85932739
    -0.19434007    -5.67347408     0.89053715
    -0.15397355    -5.03325198     0.73941868
    -0.30575872    -3.70890257     0.89708058
     0.95709072    -1.07507780     0.74696463
    -0.20559089    -8.48301248     0.76037042
    -0.18587414    -9.04082117     0.86302053
     0.05379553    -9.47562227     0.92180930
     0.31233503    -8.64798602     0.99154785
     0.51172063    -6.58392537     1.02469822
     1.06687278    -3.64347081     0.96363328
    -0.27202127   -11.66096437     0.84325476
    -0.22781612   -12.65425052     1.01126122
     0.07115182   -13.13020188     1.05951791
     0.41412290   -12.14277820     1.07239430
     0.71013575    -9.79948024     1.04233082
     1.21009652    -6.70914207     0.99303136
    -0.30162549   -14.36127650     1.01674959
    -0.23780054   -15.72505541     1.17549526
     0.05213160   -16.16407781     1.24396435
     0.37588507   -15.19971990     1.21638667
     0.70355641   -12.95738244     1.10949370
     1.07390850    -9.85011716     1.02183520
    -0.28902477   -16.61421707     1.18113442
    -0.20415362   -18.11877826     1.41028461
     0.00350082   -18.49499239     1.47782064
     0.27268681   -17.72760087     1.41783899
     0.55206418   -15.81825012     1.26574570
     0.91370719   -12.74137662     1.09134044
     0.00000000     0.00000000     0.00000000
     0.00000000     0.00000000     0.00000000
     0.00000000     0.00000000     0.00000000
     0.00000000     0.00000000     0.00000000
     0.00000000     0.00000000     0.00000000
     0.00000000     0.00000000     0.00000000
    -0.70306790    -3.69055316    -0.10529779
    -0.70687294    -4.11455502    -0.13628558
    -0.90414973    -5.09148694    -0.02223051
    -0.93646870    -5.65784984     0.01952406
    -0.57093274    -5.28728019    -0.36265191
    -0.66372459    -6.78533557    -0.26387168
    -1.19676863    -7.72688298     0.36581929
    -1.50140986    -9.08005633     0.40252675
    -1.76992395   -10.64033487     0.70724787
    -1.80193719   -11.25963792     0.74640682
    -1.40380567   -10.85186969     0.49076066
    -1.16138458   -11.43171814     0.45411779
    -1.70157501   -11.13683442     1.17365247
    -2.08719806   -13.23806633     1.38650269
    -2.45118453   -15.06802548     1.87516048
    -2.48777376   -15.85830418     2.05120317
    -2.16140025   -15.41082995     1.80585567
    -1.86413054   -15.04326737     1.58013570
    -2.19772563   -14.08389654     2.07266056
    -2.64078715   -16.64980991     2.60698478
    -2.97519767   -18.57531719     3.18834961
    -3.03317250   -19.39816862     3.42973047