# vtk DataFile Version 3.0
Example VTK
ASCII
DATASET UNSTRUCTURED_GRID
POINTS  5664 float
 -0.102400000000E+01 -0.184530000000E+01  0.176380000000E+00
 -0.101600000000E+01 -0.140880000000E+01 -0.248980000000E+00
 -0.942500000000E+00 -0.892430000000E+00 -0.561990000000E+00
 -0.790500000000E+00 -0.321140000000E+00 -0.703340000000E+00
 -0.577100000000E+00  0.247240000000E+00 -0.662230000000E+00
 -0.331200000000E+00  0.776300000000E+00 -0.485570000000E+00
 -0.942500000000E+00 -0.170750000000E+01  0.273500000000E+00
 -0.922600000000E+00 -0.130590000000E+01 -0.800200000000E-01
 -0.849500000000E+00 -0.840410000000E+00 -0.343670000000E+00
 -0.714100000000E+00 -0.330950000000E+00 -0.469990000000E+00
 -0.529600000000E+00  0.176180000000E+00 -0.450340000000E+00
 -0.319000000000E+00  0.651860000000E+00 -0.322250000000E+00
 -0.861000000000E+00 -0.156980000000E+01  0.370630000000E+00
 -0.828700000000E+00 -0.120310000000E+01  0.889370000000E-01
 -0.756600000000E+00 -0.788400000000E+00 -0.125350000000E+00
 -0.637700000000E+00 -0.340760000000E+00 -0.236640000000E+00
 -0.482000000000E+00  0.105130000000E+00 -0.238450000000E+00
 -0.306700000000E+00  0.527420000000E+00 -0.158930000000E+00
 -0.779400000000E+00 -0.143210000000E+01  0.467750000000E+00
 -0.734900000000E+00 -0.110020000000E+01  0.257890000000E+00
 -0.663700000000E+00 -0.736380000000E+00  0.929720000000E-01
 -0.561400000000E+00 -0.350570000000E+00 -0.328470000000E-02
 -0.434400000000E+00  0.340730000000E-01 -0.265570000000E-01
 -0.294500000000E+00  0.402990000000E+00  0.438870000000E-02
 -0.697900000000E+00 -0.129440000000E+01  0.564880000000E+00
 -0.641000000000E+00 -0.997370000000E+00  0.426850000000E+00
 -0.570800000000E+00 -0.684370000000E+00  0.311290000000E+00
 -0.485000000000E+00 -0.360380000000E+00  0.230070000000E+00
 -0.386900000000E+00 -0.369820000000E-01  0.185330000000E+00
 -0.282300000000E+00  0.278550000000E+00  0.167710000000E+00
 -0.616400000000E+00 -0.115670000000E+01  0.662000000000E+00
 -0.547100000000E+00 -0.894500000000E+00  0.595810000000E+00
 -0.477900000000E+00 -0.632350000000E+00  0.529610000000E+00
 -0.408600000000E+00 -0.370190000000E+00  0.463420000000E+00
 -0.339300000000E+00 -0.108040000000E+00  0.397220000000E+00
 -0.270000000000E+00  0.154120000000E+00  0.331030000000E+00
 -0.272200000000E+01 -0.906360000000E+00  0.114360000000E+00
 -0.260200000000E+01 -0.415930000000E+00 -0.138260000000E+00
 -0.241200000000E+01  0.100080000000E+00 -0.264630000000E+00
 -0.217300000000E+01  0.610740000000E+00 -0.276730000000E+00
 -0.188700000000E+01  0.107470000000E+01 -0.138270000000E+00
 -0.157800000000E+01  0.138740000000E+01  0.212590000000E+00
 -0.262100000000E+01 -0.811720000000E+00  0.236470000000E+00
 -0.250200000000E+01 -0.373500000000E+00  0.363350000000E-01
 -0.232700000000E+01  0.851810000000E-01 -0.627900000000E-01
 -0.211300000000E+01  0.539580000000E+00 -0.705090000000E-01
 -0.186200000000E+01  0.956610000000E+00  0.422250000000E-01
 -0.159200000000E+01  0.125270000000E+01  0.324880000000E+00
 -0.252000000000E+01 -0.717080000000E+00  0.358580000000E+00
 -0.240200000000E+01 -0.331070000000E+00  0.210930000000E+00
 -0.224300000000E+01  0.702840000000E-01  0.139050000000E+00
 -0.205300000000E+01  0.468430000000E+00  0.135710000000E+00
 -0.183600000000E+01  0.838540000000E+00  0.222720000000E+00
 -0.160500000000E+01  0.111790000000E+01  0.437160000000E+00
 -0.242000000000E+01 -0.622440000000E+00  0.480690000000E+00
 -0.230300000000E+01 -0.288640000000E+00  0.385530000000E+00
 -0.215800000000E+01  0.553860000000E-01  0.340880000000E+00
 -0.199400000000E+01  0.397280000000E+00  0.341930000000E+00
 -0.181100000000E+01  0.720480000000E+00  0.403210000000E+00
 -0.161900000000E+01  0.983200000000E+00  0.549450000000E+00
 -0.231900000000E+01 -0.527800000000E+00  0.602790000000E+00
 -0.220300000000E+01 -0.246210000000E+00  0.560130000000E+00
 -0.207400000000E+01  0.404890000000E-01  0.542720000000E+00
 -0.193400000000E+01  0.326120000000E+00  0.548150000000E+00
 -0.178600000000E+01  0.602410000000E+00  0.583710000000E+00
 -0.163200000000E+01  0.848460000000E+00  0.661740000000E+00
 -0.221800000000E+01 -0.433160000000E+00  0.724900000000E+00
 -0.210300000000E+01 -0.203780000000E+00  0.734730000000E+00
 -0.198900000000E+01  0.255920000000E-01  0.744550000000E+00
 -0.187500000000E+01  0.254970000000E+00  0.754370000000E+00
 -0.176000000000E+01  0.484340000000E+00  0.764200000000E+00
 -0.164600000000E+01  0.713720000000E+00  0.774020000000E+00
 -0.422900000000E+01 -0.528700000000E+00  0.119270000000E+01
 -0.415500000000E+01 -0.683480000000E-01  0.811260000000E+00
 -0.402400000000E+01  0.425510000000E+00  0.494290000000E+00
 -0.379200000000E+01  0.950140000000E+00  0.317580000000E+00
 -0.346800000000E+01  0.145560000000E+01  0.322090000000E+00
 -0.309500000000E+01  0.189790000000E+01  0.483930000000E+00
 -0.410700000000E+01 -0.412090000000E+00  0.127650000000E+01
 -0.402500000000E+01  0.472660000000E-02  0.957240000000E+00
 -0.389700000000E+01  0.448340000000E+00  0.689490000000E+00
 -0.368900000000E+01  0.916580000000E+00  0.533940000000E+00
 -0.340800000000E+01  0.136950000000E+01  0.523370000000E+00
 -0.308600000000E+01  0.177190000000E+01  0.638670000000E+00
 -0.398400000000E+01 -0.295480000000E+00  0.136040000000E+01
 -0.389500000000E+01  0.778010000000E-01  0.110320000000E+01
 -0.377100000000E+01  0.471180000000E+00  0.884690000000E+00
 -0.358600000000E+01  0.883020000000E+00  0.750310000000E+00
 -0.334700000000E+01  0.128330000000E+01  0.724660000000E+00
 -0.307700000000E+01  0.164580000000E+01  0.793420000000E+00
 -0.386200000000E+01 -0.178860000000E+00  0.144430000000E+01
 -0.376500000000E+01  0.150880000000E+00  0.124920000000E+01
 -0.364400000000E+01  0.494010000000E+00  0.107990000000E+01
 -0.348300000000E+01  0.849470000000E+00  0.966670000000E+00
 -0.328600000000E+01  0.119720000000E+01  0.925950000000E+00
 -0.306800000000E+01  0.151980000000E+01  0.948160000000E+00
 -0.374000000000E+01 -0.622490000000E-01  0.152820000000E+01
 -0.363400000000E+01  0.223950000000E+00  0.139520000000E+01
 -0.351700000000E+01  0.516850000000E+00  0.127510000000E+01
 -0.338000000000E+01  0.815910000000E+00  0.118300000000E+01
 -0.322500000000E+01  0.111110000000E+01  0.112720000000E+01
 -0.305900000000E+01  0.139370000000E+01  0.110290000000E+01
 -0.361800000000E+01  0.543640000000E-01  0.161200000000E+01
 -0.350400000000E+01  0.297020000000E+00  0.154120000000E+01
 -0.339100000000E+01  0.539690000000E+00  0.147030000000E+01
 -0.327700000000E+01  0.782350000000E+00  0.139940000000E+01
 -0.316400000000E+01  0.102500000000E+01  0.132850000000E+01
 -0.305000000000E+01  0.126770000000E+01  0.125770000000E+01
 -0.553500000000E+01  0.809210000000E+00  0.183530000000E+01
 -0.541800000000E+01  0.123220000000E+01  0.146510000000E+01
 -0.520100000000E+01  0.168480000000E+01  0.118840000000E+01
 -0.488500000000E+01  0.213780000000E+01  0.103910000000E+01
 -0.447600000000E+01  0.253060000000E+01  0.108440000000E+01
 -0.404200000000E+01  0.273560000000E+01  0.139300000000E+01
 -0.539900000000E+01  0.878460000000E+00  0.192660000000E+01
 -0.527500000000E+01  0.125540000000E+01  0.162170000000E+01
 -0.507200000000E+01  0.165600000000E+01  0.139140000000E+01
 -0.478900000000E+01  0.205690000000E+01  0.126320000000E+01
 -0.443200000000E+01  0.240970000000E+01  0.129060000000E+01
 -0.405500000000E+01  0.261220000000E+01  0.152860000000E+01
 -0.526200000000E+01  0.947710000000E+00  0.201800000000E+01
 -0.513200000000E+01  0.127850000000E+01  0.177820000000E+01
 -0.494200000000E+01  0.162720000000E+01  0.159450000000E+01
 -0.469300000000E+01  0.197600000000E+01  0.148720000000E+01
 -0.438700000000E+01  0.228880000000E+01  0.149670000000E+01
 -0.406700000000E+01  0.248880000000E+01  0.166420000000E+01
 -0.512500000000E+01  0.101700000000E+01  0.210940000000E+01
 -0.498900000000E+01  0.130170000000E+01  0.193480000000E+01
 -0.481300000000E+01  0.159840000000E+01  0.179750000000E+01
 -0.459600000000E+01  0.189520000000E+01  0.171130000000E+01
 -0.434300000000E+01  0.216790000000E+01  0.170290000000E+01
 -0.408000000000E+01  0.236550000000E+01  0.179980000000E+01
 -0.498900000000E+01  0.108620000000E+01  0.220070000000E+01
 -0.484600000000E+01  0.132490000000E+01  0.209130000000E+01
 -0.468300000000E+01  0.156960000000E+01  0.200060000000E+01
 -0.450000000000E+01  0.181430000000E+01  0.193530000000E+01
 -0.429900000000E+01  0.204690000000E+01  0.190900000000E+01
 -0.409300000000E+01  0.224210000000E+01  0.193530000000E+01
 -0.485200000000E+01  0.115550000000E+01  0.229210000000E+01
 -0.470300000000E+01  0.134810000000E+01  0.224790000000E+01
 -0.455300000000E+01  0.154070000000E+01  0.220360000000E+01
 -0.440400000000E+01  0.173340000000E+01  0.215940000000E+01
 -0.425500000000E+01  0.192600000000E+01  0.211520000000E+01
 -0.410500000000E+01  0.211870000000E+01  0.207090000000E+01
 -0.652300000000E+01  0.214360000000E+01  0.313000000000E+01
 -0.627200000000E+01  0.250830000000E+01  0.277720000000E+01
 -0.599700000000E+01  0.287410000000E+01  0.244470000000E+01
 -0.570600000000E+01  0.323950000000E+01  0.212550000000E+01
 -0.530200000000E+01  0.357900000000E+01  0.194770000000E+01
 -0.480300000000E+01  0.373120000000E+01  0.214860000000E+01
 -0.636100000000E+01  0.220310000000E+01  0.317930000000E+01
 -0.612600000000E+01  0.252660000000E+01  0.287740000000E+01
 -0.587100000000E+01  0.285100000000E+01  0.259180000000E+01
 -0.560500000000E+01  0.317510000000E+01  0.231680000000E+01
 -0.524700000000E+01  0.347840000000E+01  0.215500000000E+01
 -0.481300000000E+01  0.363190000000E+01  0.229600000000E+01
 -0.620000000000E+01  0.226260000000E+01  0.322860000000E+01
 -0.598000000000E+01  0.254490000000E+01  0.297760000000E+01
 -0.574600000000E+01  0.282790000000E+01  0.273890000000E+01
[...]
POINT_DATA      5664
VECTORS Velocities float 
     0.00000000     0.00000000     0.00000000
     0.00000000     0.00000000     0.00000000
     0.00000000     0.00000000     0.00000000
     0.00000000     0.00000000     0.00000000
     0.00000000     0.00000000     0.00000000
     0.00000000     0.00000000     0.00000000
     1.16510064    -0.29241066    -0.06282498
     1.42397494    -0.28215830    -0.11434588
     1.45456681    -0.34732414    -0.12954483
     1.38788835    -0.40651587    -0.14194550
     1.23446864    -0.40830807    -0.18845475
     0.86338297    -0.28208658    -0.17917599
     1.99576369    -0.58200172    -0.27119190
     2.35768646    -0.61596994    -0.40619513
     2.44685077    -0.67356236    -0.49500347
     2.37818743    -0.70132817    -0.52363604
     2.15582240    -0.67710145    -0.51107958
     1.67256232    -0.48987493    -0.41710608
     2.67155693    -0.82284770    -0.46992053
     3.08244514    -0.90646613    -0.64845414
     3.24061525    -0.96243495    -0.75312488
     3.18321979    -0.96616946    -0.79550405
     2.91105839    -0.91019476    -0.76801435
     2.39345497    -0.71570970    -0.64229790
     3.21343230    -1.03744027    -0.65203414
     3.63850480    -1.14383735    -0.84040021
     3.82908504    -1.19795139    -0.96604931
     3.78745974    -1.19367294    -1.00167614
     3.51503255    -1.11509413    -0.96014199
     3.01111832    -0.93588219    -0.83569540
     3.64407966    -1.20645948    -0.81623304
     4.04941796    -1.32897386    -0.99404324
     4.23795066    -1.38047793    -1.10326876
     4.21283699    -1.36947867    -1.14186737
     3.97730994    -1.29137908    -1.10330632
     3.52037033    -1.12417292    -0.98299752
     0.00000000     0.00000000     0.00000000
     0.00000000     0.00000000     0.00000000
     0.00000000     0.00000000     0.00000000
     0.00000000     0.00000000     0.00000000
     0.00000000     0.00000000     0.00000000
     0.00000000     0.00000000     0.00000000
     0.56669884    -0.23032411    -0.34597691
     0.61727159    -0.31626940    -0.42706294
     0.75298973    -0.34067584    -0.49798509
     0.82489835    -0.30963472    -0.49106317
     0.81889780    -0.21994126    -0.40105850
     0.86153159    -0.24171977    -0.37157458
     1.27280990    -0.47746377    -0.56450604
     1.45937624    -0.59668372    -0.66086409
     1.66557140    -0.66575627    -0.71479157
     1.74266214    -0.64832404    -0.71095254
     1.65489873    -0.55237063    -0.65122683
     1.59322859    -0.56126145    -0.62384739
     1.91384752    -0.73168102    -0.77516522
     2.19978870    -0.86106475    -0.88228340
     2.42206075    -0.93897057    -0.95560988
     2.48971053    -0.93665768    -0.95279048
     2.38532794    -0.85662861    -0.88738117
     2.21990242    -0.82084632    -0.83426709
     2.49456902    -0.96210880    -0.97019784
     2.83007471    -1.10012801    -1.09206514
     3.05902578    -1.18292972    -1.16042076
     3.12090084    -1.18156209    -1.16914263
     2.99917201    -1.11397426    -1.10822440
     2.75957147    -1.03356420    -1.01604124
     2.99350761    -1.16876753    -1.14400746
     3.35905510    -1.31113616    -1.27748209
     3.56961176    -1.38499240    -1.35137451
     3.62555315    -1.38919762    -1.35758250
     3.51028669    -1.32508294    -1.29912311
     3.20528375    -1.20914077    -1.18215771
     0.00000000     0.00000000     0.00000000
     0.00000000     0.00000000     0.00000000
     0.00000000     0.00000000     0.00000000
     0.00000000     0.00000000     0.00000000
     0.00000000     0.00000000     0.00000000
     0.00000000     0.00000000     0.00000000
     0.72360541    -0.44911370    -0.28069105
     1.04498203    -0.55925269    -0.34451698
     1.12860088    -0.57971710    -0.30300568
     1.09033715    -0.56053331    -0.28020563
     0.93429266    -0.58388227    -0.26323182
     0.64967578    -0.39056096    -0.14597293
     1.24449544    -0.80831234    -0.61164213
     1.62997686    -0.97264427    -0.72791005
     1.75863857    -0.98693717    -0.74839819
     1.74637258    -0.96172864    -0.70485426
     1.63825093    -0.90062424    -0.60793399
     1.29376697    -0.64667759    -0.42920994
     1.74717493    -1.11959596    -0.90733018
     2.14609518    -1.31124968    -1.06956261
     2.33885775    -1.36262892    -1.11363589
     2.37145957    -1.31776244    -1.07807609
     2.23807491    -1.19466697    -0.96013216
     1.89274526    -0.91618037    -0.74394731
     2.19841306    -1.39581681    -1.17978247
     2.60267038    -1.60034619    -1.36072519
     2.82574841    -1.67064145    -1.44538301
     2.87735148    -1.63153927    -1.41806828
     2.75328725    -1.47658448    -1.29219666
     2.40958879    -1.19804282    -1.06857197
     2.60592698    -1.63729277    -1.42111817
     2.99355026    -1.84310548    -1.61592628
     3.22269825    -1.93000562    -1.71541023
     3.28568099    -1.89735414    -1.71441134
     3.16820617    -1.74811150    -1.60068054
     2.85064876    -1.47257687    -1.36442596
     0.00000000     0.00000000     0.00000000
     0.00000000     0.00000000     0.00000000
     0.00000000     0.00000000     0.00000000
     0.00000000     0.00000000     0.00000000
     0.00000000     0.00000000     0.00000000
     0.00000000     0.00000000     0.00000000
     0.28715732    -0.37737351    -0.48136583
     0.20977248    -0.34662728    -0.57860791
     0.18540619    -0.36764913    -0.63171790
     0.28902690    -0.43215747    -0.63340850
     0.50290879    -0.37818336    -0.62324088
     0.48663362    -0.39793600    -0.56225847
     0.73057199    -0.85425010    -0.89723663
     0.76942092    -0.93549875    -1.06889000
     0.84397462    -1.03394538    -1.15490910
     0.95914726    -1.07779360    -1.19509995
     1.01513806    -1.02580962    -1.15100344
     1.01646438    -0.96899052    -1.03149936
     1.11085802    -1.29339861    -1.28037272
     1.26268661    -1.48131362    -1.49300951
     1.38501187    -1.61743246    -1.63238984
     1.48121636    -1.68340835    -1.67292550
     1.52441398    -1.63190571    -1.60564297
     1.46654878    -1.52073354    -1.45276402
     1.46575990    -1.69865413    -1.61379761
     1.68555630    -1.95809233    -1.85927296
     1.85254088    -2.14974759    -2.01129111
     1.95350159    -2.22446058    -2.06464670
     1.95312349    -2.17288069    -1.98668373
     1.86629958    -2.00138636    -1.79874391
     1.78269420    -2.05957274    -1.90339101
     2.04667892    -2.36916912    -2.15360452
     2.22867823    -2.57694921    -2.30989583
     2.32763671    -2.67138929    -2.35929558
     2.32699983    -2.62118036    -2.28987975
     2.17264824    -2.39528189    -2.08422624
     0.00000000     0.00000000     0.00000000
     0.00000000     0.00000000     0.00000000
     0.00000000     0.00000000     0.00000000
     0.00000000     0.00000000     0.00000000
     0.00000000     0.00000000     0.00000000
     0.00000000     0.00000000     0.00000000
     0.35476997    -0.61105112    -0.27447910
     0.60536215    -1.03829949    -0.50352209
     0.69637355    -1.25861905    -0.59619600
     0.63352258    -1.21524849    -0.59883635
     0.39759525    -1.04493338    -0.47740815
     0.50661511    -1.23317437    -0.61637260
     0.57518698    -1.21005604    -0.63485191
     0.86655126    -1.74879164    -0.93924773
     0.98844828    -2.04917208    -1.13229471
     0.91673325    -2.06082891    -1.11220223
     0.76475823    -1.93276962    -0.98433232
     0.75018338    -2.09876595    -1.05054534
     0.82838099    -1.82948452    -0.97889499
     1.09496771    -2.37484383    -1.29298449
     1.23494568    -2.72452910    -1.48029791
     1.20929402    -2.80753946    -1.50442062
     1.04966460    -2.73060828    -1.39683533
     0.97823420    -2.77862949    -1.35139867
     1.05766856    -2.41206033    -1.29149348
     1.29102591    -2.92519681    -1.56540413
     1.42318024    -3.27620525    -1.75170583
     1.41755726    -3.41728223    -1.78769369
     1.30897255    -3.39099066    -1.70766126
     1.17170181    -3.30625676    -1.59611090
     1.26759029    -2.93918389    -1.55407131
     1.45462544    -3.40463580    -1.78597891
     1.56526867    -3.73004218    -1.93530214
     1.58478108    -3.90116453    -1.99257905
     1.50679791    -3.90248422    -1.94143640
     1.35513744    -3.70876973    -1.78803003
     0.00000000     0.00000000     0.00000000
     0.00000000     0.00000000     0.00000000
     0.00000000     0.00000000     0.00000000
     0.00000000     0.00000000     0.00000000
     0.00000000     0.00000000     0.00000000
     0.00000000     0.00000000     0.00000000
     0.04868937    -0.73467871    -0.29932196
     0.10870414    -0.83552190    -0.36454302
     0.14116930    -0.81158261    -0.44962194
     0.11588380    -0.85011386    -0.43551004
     0.08032674    -0.70250605    -0.29528491
    -0.07626472    -0.70275458    -0.11438468
     0.33275715    -1.57545495    -0.67501834
     0.44321949    -1.83492572    -0.81407549
     0.49119802    -1.92679502    -0.86661559
     0.44744454    -1.86581741    -0.83397520
     0.32845286    -1.63492557    -0.65188626
     0.18626350    -1.42356669    -0.42542285
     0.57202097    -2.32088486    -1.03528991
     0.70623056    -2.67255444    -1.19798091
     0.74386691    -2.79739567    -1.26121140
     0.69688562    -2.72619452    -1.20192900
     0.60109289    -2.44364374    -1.02188938
     0.41727224    -2.09393955    -0.79901510
     0.78947430    -2.97118069    -1.34565912
     0.91608069    -3.34830456    -1.51866577
     0.95856750    -3.51620758    -1.57654998
     0.92370627    -3.44060488    -1.52768791
     0.81558255    -3.14196526    -1.36854149
     0.62767413    -2.70580654    -1.12653590
     0.96501212    -3.50609450    -1.60114664
     1.08671276    -3.88985991    -1.76614667
     1.12665621    -4.05333006    -1.82690901
     1.09564201    -4.00225518    -1.78460690
     0.99258388    -3.72787999    -1.64668635
     0.80482370    -3.24692285    -1.40695877
     0.00000000     0.00000000     0.00000000
     0.00000000     0.00000000     0.00000000
     0.00000000     0.00000000     0.00000000
     0.00000000     0.00000000     0.00000000
     0.00000000     0.00000000     0.00000000
     0.00000000     0.00000000     0.00000000
     0.47357734    -0.81901062    -0.50382037
     0.48928191    -1.12467451    -0.63879512
     0.51787861    -1.28329528    -0.62628820
     0.55947520    -1.22462538    -0.61494590
     0.52424370    -1.04451175    -0.56368278
     0.61277607    -0.78634403    -0.68412666
     0.69081215    -1.54146902    -0.83744119
     0.73946162    -1.93708271    -1.00760815
     0.76912316    -2.16481262    -1.08532007
     0.81112875    -2.12986621    -1.05513288
     0.84266712    -1.88809821    -1.02043223
     0.87842973    -1.57306565    -1.05823445
     0.89940636    -2.23918550    -1.11394266
     0.97320004    -2.67409670    -1.30698519
     1.03951014    -2.93182211    -1.40725627
     1.08200670    -2.92017192    -1.41860354
     1.07407981    -2.67641392    -1.36366138
     1.10685179    -2.31409612    -1.31480755
     1.06978119    -2.86763448    -1.35064505
     1.17357702    -3.30629587    -1.53664309
     1.25002743    -3.56077744    -1.66055585
     1.28625989    -3.57267493    -1.68054926
     1.28610435    -3.35744030    -1.62190567
     1.27776567    -2.96077313    -1.52729028
     1.21991244    -3.41555975    -1.54417411
     1.33332239    -3.83555477    -1.72500556
     1.41127930    -4.06472320    -1.83495173
     1.44808883    -4.09462368    -1.87176457
     1.44597868    -3.91466800    -1.82429877
     1.41013667    -3.50146735    -1.70169263
     0.00000000     0.00000000     0.00000000
     0.00000000     0.00000000     0.00000000
     0.00000000     0.00000000     0.00000000
     0.00000000     0.00000000     0.00000000
     0.00000000     0.00000000     0.00000000
     0.00000000     0.00000000     0.00000000
    -0.05546098    -0.59671990    -0.04287482
     0.07572233    -0.88775333    -0.12921176
     0.19330231    -0.98318486    -0.26903467
     0.20897570    -0.99246000    -0.28466236
     0.17335938    -1.05336562    -0.27782931
    -0.05102769    -1.24366622    -0.09590084
     0.12383882    -1.45144753    -0.29334296
     0.32286112    -1.92667855    -0.48664501
     0.46240114    -2.14008560    -0.58539441
     0.49745158    -2.17282954    -0.63285718
     0.37700792    -2.12369704    -0.54315810
     0.21336951    -2.19375541    -0.35198513
     0.28387537    -2.23979548    -0.56649945
     0.49725313    -2.78206383    -0.77086837
     0.62837605    -3.04967385    -0.89083812
     0.65272645    -3.11111505    -0.90231124
     0.59123618    -3.04320391    -0.81390288
     0.40832312    -2.93654008    -0.62525108
     0.44262386    -2.97004277    -0.81946331
     0.63024595    -3.50077592    -1.02468667
     0.74678196    -3.80718511    -1.12449399
     0.78822282    -3.90358313    -1.14697444
     0.73629988    -3.79672811    -1.06264420
     0.59401411    -3.56801042    -0.87366352
     0.57754489    -3.59716265    -1.04811332
     0.73778055    -4.11684755    -1.22688965
     0.83559871    -4.42254867    -1.32438457
     0.87628598    -4.52584503    -1.33666662
     0.84874769    -4.41707913    -1.26757953
     0.73332553    -4.08735803    -1.09389966
     0.00000000     0.00000000     0.00000000
     0.00000000     0.00000000     0.00000000
     0.00000000     0.00000000     0.00000000
     0.00000000     0.00000000     0.00000000
     0.00000000     0.00000000     0.00000000
     0.00000000     0.00000000     0.00000000
     0.19047920    -1.05346547    -0.31722212
     0.17209542    -1.42018188    -0.35087997
     0.18250218    -1.49145857    -0.32187963
     0.20604053    -1.50711686    -0.36050629
     0.25192806    -1.33302036    -0.36914645
     0.49294485    -0.78566171    -0.36465932
     0.22149540    -1.86848880    -0.47398331
     0.23533988    -2.34261801    -0.53813025
     0.27873284    -2.53191154    -0.58234614
     0.34663058    -2.54363701    -0.60143378
     0.47390899    -2.35942193    -0.64703086
     0.56275576    -1.65517020    -0.59484967
     0.26155956    -2.64828971    -0.62750374
     0.28882460    -3.19472561    -0.70081722
     0.35959358    -3.48162287    -0.75486009
     0.45273721    -3.52027128    -0.80154603
     0.53781458    -3.25644342    -0.82217737
     0.62437406    -2.55799411    -0.76269190
     0.28953797    -3.34743262    -0.74796739
     0.33338269    -3.92844652    -0.82516981
     0.41140803    -4.26268120    -0.89416498
     0.48596693    -4.29380732    -0.92590090
     0.56082367    -4.02571893    -0.93269240
     0.61596737    -3.37477091    -0.88329874
     0.32001037    -3.95790598    -0.84360003
     0.36576427    -4.53163903    -0.92251639
     0.42575355    -4.85320046    -0.97809620
     0.48597283    -4.89900066    -1.01081486
     0.53730771    -4.64881221    -1.00883127
     0.59199858    -4.06936825    -0.96410569
     0.00000000     0.00000000     0.00000000
     0.00000000     0.00000000     0.00000000
     0.00000000     0.00000000     0.00000000
     0.00000000     0.00000000     0.00000000
     0.00000000     0.00000000     0.00000000
     0.00000000     0.00000000     0.00000000
    -0.23215537    -0.74170893    -0.01689908
    -0.11454973    -1.11728827    -0.08182648
    -0.07199945    -1.38948815    -0.11853874
    -0.01784952    -1.53845686    -0.03863605
     0.05844809    -1.66530653    -0.08294201
    -0.26339519    -1.33507510     0.00766951
    -0.31497244    -1.77554541    -0.06012649
    -0.24418747    -2.39698563    -0.09053037
    -0.18101807    -2.81283857    -0.08427517
    -0.12593554    -3.04373182    -0.08051412
    -0.16313956    -2.97697921    -0.04001046
    -0.27853491    -2.53931122     0.01055120
    -0.37600322    -2.70702460    -0.05800268
    -0.30812797    -3.43498193    -0.09056969
    -0.25340578    -3.91580754    -0.08849760
    -0.21920161    -4.12592443    -0.05609711
    -0.21815518    -4.02011966    -0.01584134
    -0.33164948    -3.51573892     0.02577138
    -0.40290458    -3.55191073    -0.05518414
    -0.34605532    -4.29591237    -0.07620643
    -0.30849976    -4.76747448    -0.05997894
    -0.26898115    -4.97625371    -0.03610505
    -0.26659670    -4.82242430     0.00312653
    -0.31447928    -4.32836455     0.04379700
    -0.40654861    -4.27137280    -0.04039518
    -0.36665502    -4.98814106    -0.04086685
    -0.32986706    -5.41724196    -0.02531150
    -0.30323964    -5.57474624     0.00179521
    -0.28465698    -5.44344948     0.02768352
    -0.30268045    -4.96947528     0.04766097
     0.00000000     0.00000000     0.00000000
     0.00000000     0.00000000     0.00000000
     0.00000000     0.00000000     0.00000000
     0.00000000     0.00000000     0.00000000
     0.00000000     0.00000000     0.00000000
     0.00000000     0.00000000     0.00000000
    -0.03405912    -1.64171236     0.21738490
    -0.13717445    -1.73066439     0.30602350
    -0.09904469    -1.93327695     0.29794406
    -0.06250234    -1.74124660     0.22973818
    -0.08095643    -1.30520900     0.28351391
     0.35303775    -0.41255113     0.25624381
    -0.08418970    -2.83568377     0.32076630
    -0.09668807    -3.05575726     0.35108416
    -0.02741353    -3.24233536     0.35440628
     0.07502279    -3.00232411     0.35493778
     0.18003399    -2.32500096     0.35824800
     0.39080119    -1.33246818     0.35477022
    -0.09768239    -3.87798084     0.36674031
    -0.09735145    -4.24161286     0.42345244
    -0.00300428    -4.44032158     0.42579633
     0.12320567    -4.15262728     0.41215036
     0.24779895    -3.40095053     0.39564585
     0.43972110    -2.37674287     0.39079960
    -0.09198384    -4.75049263     0.42818159
    -0.07429772    -5.22228655     0.47820944
     0.02309811    -5.39745715     0.48941928
     0.13820129    -5.11797365     0.47051212
     0.25983844    -4.41627011     0.43574513
     0.39765759    -3.41283954     0.41768871
    -0.06682131    -5.46794078     0.47354515
    -0.03070025    -5.96488659     0.53997664
     0.04432233    -6.10585611     0.55304930
     0.13697427    -5.88815968     0.53262585
     0.23081391    -5.30719883     0.49151431
     0.35259455    -4.33917391     0.44709183
     0.00000000     0.00000000     0.00000000
     0.00000000     0.00000000     0.00000000
     0.00000000     0.00000000     0.00000000
     0.00000000     0.00000000     0.00000000
     0.00000000     0.00000000     0.00000000
     0.00000000     0.00000000     0.00000000
    -0.25518451    -1.32092700     0.05371084
    -0.27429424    -1.50377313     0.03803564
    -0.35308012    -1.85623074     0.05991744
    -0.36210897    -2.04201576     0.04343242
    -0.23180984    -1.87784668    -0.09904326
    -0.21149399    -2.34306686    -0.08744754
    -0.42364277    -2.70224656     0.23839111
    -0.55144936    -3.17509876     0.22719338
    -0.65295121    -3.70405517     0.27638782
    -0.65737529    -3.90347104     0.24147484
    -0.49230890    -3.73936053     0.13193699
    -0.35685567    -3.90514576     0.10452324
    -0.58246032    -3.83915916     0.49072079
    -0.73206466    -4.53623157     0.50639697
    -0.85796169    -5.12963628     0.59084981
    -0.85081816    -5.37999311     0.58839494
    -0.70519148    -5.21859016     0.48720114
    -0.55978166    -5.09230327     0.41947549
    -0.72795586    -4.79313558     0.73557335
    -0.88230164    -5.61544429     0.82820965
    -0.98636611    -6.22274598     0.92951430
    -0.98346277    -6.48241707     0.95077436