# vtk DataFile Version 3.0
Example VTK
ASCII
DATASET UNSTRUCTURED_GRID
POINTS  5664 float
 -0.102400000000E+01 -0.184530000000E+01  0.176380000000E+00
 -0.101600000000E+01 -0.140880000000E+01 -0.248980000000E+00
 -0.942500000000E+00 -0.892430000000E+00 -0.561990000000E+00
 -0.790500000000E+00 -0.321140000000E+00 -0.703340000000E+00
 -0.577100000000E+00  0.247240000000E+00 -0.662230000000E+00
 -0.331200000000E+00  0.776300000000E+00 -0.485570000000E+00
 -0.942500000000E+00 -0.170750000000E+01  0.273500000000E+00
 -0.922600000000E+00 -0.130590000000E+01 -0.800200000000E-01
 -0.849500000000E+00 -0.840410000000E+00 -0.343670000000E+00
 -0.714100000000E+00 -0.330950000000E+00 -0.469990000000E+00
 -0.529600000000E+00  0.176180000000E+00 -0.450340000000E+00
 -0.319000000000E+00  0.651860000000E+00 -0.322250000000E+00
 -0.861000000000E+00 -0.156980000000E+01  0.370630000000E+00
 -0.828700000000E+00 -0.120310000000E+01  0.889370000000E-01
 -0.756600000000E+00 -0.788400000000E+00 -0.125350000000E+00
 -0.637700000000E+00 -0.340760000000E+00 -0.236640000000E+00
 -0.482000000000E+00  0.105130000000E+00 -0.238450000000E+00
 -0.306700000000E+00  0.527420000000E+00 -0.158930000000E+00
 -0.779400000000E+00 -0.143210000000E+01  0.467750000000E+00
 -0.734900000000E+00 -0.110020000000E+01  0.257890000000E+00
 -0.663700000000E+00 -0.736380000000E+00  0.929720000000E-01
 -0.561400000000E+00 -0.350570000000E+00 -0.328470000000E-02
 -0.434400000000E+00  0.340730000000E-01 -0.265570000000E-01
 -0.294500000000E+00  0.402990000000E+00  0.438870000000E-02
 -0.697900000000E+00 -0.129440000000E+01  0.564880000000E+00
 -0.641000000000E+00 -0.997370000000E+00  0.426850000000E+00
 -0.570800000000E+00 -0.684370000000E+00  0.311290000000E+00
 -0.485000000000E+00 -0.360380000000E+00  0.230070000000E+00
 -0.386900000000E+00 -0.369820000000E-01  0.185330000000E+00
 -0.282300000000E+00  0.278550000000E+00  0.167710000000E+00
 -0.616400000000E+00 -0.115670000000E+01  0.662000000000E+00
 -0.547100000000E+00 -0.894500000000E+00  0.595810000000E+00
 -0.477900000000E+00 -0.632350000000E+00  0.529610000000E+00
 -0.408600000000E+00 -0.370190000000E+00  0.463420000000E+00
 -0.339300000000E+00 -0.108040000000E+00  0.397220000000E+00
 -0.270000000000E+00  0.154120000000E+00  0.331030000000E+00
 -0.272200000000E+01 -0.906360000000E+00  0.114360000000E+00
 -0.260200000000E+01 -0.415930000000E+00 -0.138260000000E+00
 -0.241200000000E+01  0.100080000000E+00 -0.264630000000E+00
 -0.217300000000E+01  0.610740000000E+00 -0.276730000000E+00
 -0.188700000000E+01  0.107470000000E+01 -0.138270000000E+00
 -0.157800000000E+01  0.138740000000E+01  0.212590000000E+00
 -0.262100000000E+01 -0.811720000000E+00  0.236470000000E+00
 -0.250200000000E+01 -0.373500000000E+00  0.363350000000E-01
 -0.232700000000E+01  0.851810000000E-01 -0.627900000000E-01
 -0.211300000000E+01  0.539580000000E+00 -0.705090000000E-01
 -0.186200000000E+01  0.956610000000E+00  0.422250000000E-01
 -0.159200000000E+01  0.125270000000E+01  0.324880000000E+00
 -0.252000000000E+01 -0.717080000000E+00  0.358580000000E+00
 -0.240200000000E+01 -0.331070000000E+00  0.210930000000E+00
 -0.224300000000E+01  0.702840000000E-01  0.139050000000E+00
 -0.205300000000E+01  0.468430000000E+00  0.135710000000E+00
 -0.183600000000E+01  0.838540000000E+00  0.222720000000E+00
 -0.160500000000E+01  0.111790000000E+01  0.437160000000E+00
 -0.242000000000E+01 -0.622440000000E+00  0.480690000000E+00
 -0.230300000000E+01 -0.288640000000E+00  0.385530000000E+00
 -0.215800000000E+01  0.553860000000E-01  0.340880000000E+00
 -0.199400000000E+01  0.397280000000E+00  0.341930000000E+00
 -0.181100000000E+01  0.720480000000E+00  0.403210000000E+00
 -0.161900000000E+01  0.983200000000E+00  0.549450000000E+00
 -0.231900000000E+01 -0.527800000000E+00  0.602790000000E+00
 -0.220300000000E+01 -0.246210000000E+00  0.560130000000E+00
 -0.207400000000E+01  0.404890000000E-01  0.542720000000E+00
 -0.193400000000E+01  0.326120000000E+00  0.548150000000E+00
 -0.178600000000E+01  0.602410000000E+00  0.583710000000E+00
 -0.163200000000E+01  0.848460000000E+00  0.661740000000E+00
 -0.221800000000E+01 -0.433160000000E+00  0.724900000000E+00
 -0.210300000000E+01 -0.203780000000E+00  0.734730000000E+00
 -0.198900000000E+01  0.255920000000E-01  0.744550000000E+00
 -0.187500000000E+01  0.254970000000E+00  0.754370000000E+00
 -0.176000000000E+01  0.484340000000E+00  0.764200000000E+00
 -0.164600000000E+01  0.713720000000E+00  0.774020000000E+00
 -0.422900000000E+01 -0.528700000000E+00  0.119270000000E+01
 -0.415500000000E+01 -0.683480000000E-01  0.811260000000E+00
 -0.402400000000E+01  0.425510000000E+00  0.494290000000E+00
 -0.379200000000E+01  0.950140000000E+00  0.317580000000E+00
 -0.346800000000E+01  0.145560000000E+01  0.322090000000E+00
 -0.309500000000E+01  0.189790000000E+01  0.483930000000E+00
 -0.410700000000E+01 -0.412090000000E+00  0.127650000000E+01
 -0.402500000000E+01  0.472660000000E-02  0.957240000000E+00
 -0.389700000000E+01  0.448340000000E+00  0.689490000000E+00
 -0.368900000000E+01  0.916580000000E+00  0.533940000000E+00
 -0.340800000000E+01  0.136950000000E+01  0.523370000000E+00
 -0.308600000000E+01  0.177190000000E+01  0.638670000000E+00
 -0.398400000000E+01 -0.295480000000E+00  0.136040000000E+01
 -0.389500000000E+01  0.778010000000E-01  0.110320000000E+01
 -0.377100000000E+01  0.471180000000E+00  0.884690000000E+00
 -0.358600000000E+01  0.883020000000E+00  0.750310000000E+00
 -0.334700000000E+01  0.128330000000E+01  0.724660000000E+00
 -0.307700000000E+01  0.164580000000E+01  0.793420000000E+00
 -0.386200000000E+01 -0.178860000000E+00  0.144430000000E+01
 -0.376500000000E+01  0.150880000000E+00  0.124920000000E+01
 -0.364400000000E+01  0.494010000000E+00  0.107990000000E+01
 -0.348300000000E+01  0.849470000000E+00  0.966670000000E+00
 -0.328600000000E+01  0.119720000000E+01  0.925950000000E+00
 -0.306800000000E+01  0.151980000000E+01  0.948160000000E+00
 -0.374000000000E+01 -0.622490000000E-01  0.152820000000E+01
 -0.363400000000E+01  0.223950000000E+00  0.139520000000E+01
 -0.351700000000E+01  0.516850000000E+00  0.127510000000E+01
 -0.338000000000E+01  0.815910000000E+00  0.118300000000E+01
 -0.322500000000E+01  0.111110000000E+01  0.112720000000E+01
 -0.305900000000E+01  0.139370000000E+01  0.110290000000E+01
 -0.361800000000E+01  0.543640000000E-01  0.161200000000E+01
 -0.350400000000E+01  0.297020000000E+00  0.154120000000E+01
 -0.339100000000E+01  0.539690000000E+00  0.147030000000E+01
 -0.327700000000E+01  0.782350000000E+00  0.139940000000E+01
 -0.316400000000E+01  0.102500000000E+01  0.132850000000E+01
 -0.305000000000E+01  0.126770000000E+01  0.125770000000E+01
 -0.553500000000E+01  0.809210000000E+00  0.183530000000E+01
 -0.541800000000E+01  0.123220000000E+01  0.146510000000E+01
 -0.520100000000E+01  0.168480000000E+01  0.118840000000E+01
 -0.488500000000E+01  0.213780000000E+01  0.103910000000E+01
 -0.447600000000E+01  0.253060000000E+01  0.108440000000E+01
 -0.404200000000E+01  0.273560000000E+01  0.139300000000E+01
 -0.539900000000E+01  0.878460000000E+00  0.192660000000E+01
 -0.527500000000E+01  0.125540000000E+01  0.162170000000E+01
 -0.507200000000E+01  0.165600000000E+01  0.139140000000E+01
 -0.478900000000E+01  0.205690000000E+01  0.126320000000E+01
 -0.443200000000E+01  0.240970000000E+01  0.129060000000E+01
 -0.405500000000E+01  0.261220000000E+01  0.152860000000E+01
 -0.526200000000E+01  0.947710000000E+00  0.201800000000E+01
 -0.513200000000E+01  0.127850000000E+01  0.177820000000E+01
 -0.494200000000E+01  0.162720000000E+01  0.159450000000E+01
 -0.469300000000E+01  0.197600000000E+01  0.148720000000E+01
 -0.438700000000E+01  0.228880000000E+01  0.149670000000E+01
 -0.406700000000E+01  0.248880000000E+01  0.166420000000E+01
 -0.512500000000E+01  0.101700000000E+01  0.210940000000E+01
 -0.498900000000E+01  0.130170000000E+01  0.193480000000E+01
 -0.481300000000E+01  0.159840000000E+01  0.179750000000E+01
 -0.459600000000E+01  0.189520000000E+01  0.171130000000E+01
 -0.434300000000E+01  0.216790000000E+01  0.170290000000E+01
 -0.408000000000E+01  0.236550000000E+01  0.179980000000E+01
 -0.498900000000E+01  0.108620000000E+01  0.220070000000E+01
 -0.484600000000E+01  0.132490000000E+01  0.209130000000E+01
 -0.468300000000E+01  0.156960000000E+01  0.200060000000E+01
 -0.450000000000E+01  0.181430000000E+01  0.193530000000E+01
 -0.429900000000E+01  0.204690000000E+01  0.190900000000E+01
 -0.409300000000E+01  0.224210000000E+01  0.193530000000E+01
 -0.485200000000E+01  0.115550000000E+01  0.229210000000E+01
 -0.470300000000E+01  0.134810000000E+01  0.224790000000E+01
 -0.455300000000E+01  0.154070000000E+01  0.220360000000E+01
 -0.440400000000E+01  0.173340000000E+01  0.215940000000E+01
 -0.425500000000E+01  0.192600000000E+01  0.211520000000E+01
 -0.410500000000E+01  0.211870000000E+01  0.207090000000E+01
 -0.652300000000E+01  0.214360000000E+01  0.313000000000E+01
 -0.627200000000E+01  0.250830000000E+01  0.277720000000E+01
 -0.599700000000E+01  0.287410000000E+01  0.244470000000E+01
 -0.570600000000E+01  0.323950000000E+01  0.212550000000E+01
 -0.530200000000E+01  0.357900000000E+01  0.194770000000E+01
 -0.480300000000E+01  0.373120000000E+01  0.214860000000E+01
 -0.636100000000E+01  0.220310000000E+01  0.317930000000E+01
 -0.612600000000E+01  0.252660000000E+01  0.287740000000E+01
 -0.587100000000E+01  0.285100000000E+01  0.259180000000E+01
 -0.560500000000E+01  0.317510000000E+01  0.231680000000E+01
 -0.524700000000E+01  0.347840000000E+01  0.215500000000E+01
 -0.481300000000E+01  0.363190000000E+01  0.229600000000E+01
 -0.620000000000E+01  0.226260000000E+01  0.322860000000E+01
 -0.598000000000E+01  0.254490000000E+01  0.297760000000E+01
 -0.574600000000E+01  0.282790000000E+01  0.273890000000E+01
[...]
POINT_DATA      5664
VECTORS Velocities float 
     0.00000000     0.00000000     0.00000000
     0.00000000     0.00000000     0.00000000
     0.00000000     0.00000000     0.00000000
     0.00000000     0.00000000     0.00000000
     0.00000000     0.00000000     0.00000000
     0.00000000     0.00000000     0.00000000
     2.37186368    -0.60503603    -0.13465539
     2.89473887    -0.57813176    -0.25131687
     2.96063798    -0.69750915    -0.28396529
     2.82498070    -0.81120406    -0.29835382
     2.50817125    -0.80992592    -0.37927978
     1.74510094    -0.57297630    -0.35320735
     4.04969499    -1.19890401    -0.56725799
     4.77754381    -1.25663171    -0.86143145
     4.96004770    -1.35524972    -1.04602015
     4.82032903    -1.39692149    -1.09243661
     4.36243556    -1.34290048    -1.04578915
     3.37890414    -0.97575748    -0.83362426
     5.40631245    -1.68806809    -0.98460836
     6.23000265    -1.84511426    -1.36732569
     6.54801950    -1.93881027    -1.58452691
     6.42952389    -1.93093274    -1.65677609
     5.87440000    -1.80993373    -1.57663606
     4.82556478    -1.42067227    -1.29700329
     6.48843376    -2.11963523    -1.36918513
     7.33519072    -2.32279438    -1.77113030
     7.71282849    -2.41544468    -2.02971898
     7.62454306    -2.39103695    -2.08900279
     7.07209694    -2.22336682    -1.98027060
     6.05704519    -1.85998971    -1.70020206
     7.34264264    -2.45561234    -1.71800237
     8.14418440    -2.69185342    -2.09508320
     8.51269302    -2.78232305    -2.31929232
     8.45561394    -2.74737193    -2.38578111
     7.98067771    -2.57983171    -2.28532240
     7.06536665    -2.23834596    -2.01475268
     0.00000000     0.00000000     0.00000000
     0.00000000     0.00000000     0.00000000
     0.00000000     0.00000000     0.00000000
     0.00000000     0.00000000     0.00000000
     0.00000000     0.00000000     0.00000000
     0.00000000     0.00000000     0.00000000
     1.14838951    -0.46680125    -0.69811905
     1.25295422    -0.62411542    -0.86539194
     1.52354010    -0.66025029    -1.00654648
     1.66340015    -0.58811242    -0.98547219
     1.64630434    -0.41310033    -0.79534656
     1.73257204    -0.45048864    -0.72772875
     2.57573464    -0.96471911    -1.14404121
     2.95181482    -1.18455534    -1.34006700
     3.36259782    -1.30303707    -1.44146378
     3.51048513    -1.25632841    -1.41663131
     3.32698125    -1.06470115    -1.28029623
     3.19256410    -1.08553964    -1.22023268
     3.86649512    -1.47767120    -1.57370563
     4.43491402    -1.71726543    -1.79232235
     4.87322424    -1.85238946    -1.93000757
     5.00072628    -1.83162454    -1.90390173
     4.78225546    -1.66816428    -1.75069993
     4.43897124    -1.60247263    -1.63298542
     5.02966530    -1.94319371    -1.97230071
     5.69230575    -2.20347991    -2.21921796
     6.13983109    -2.35016879    -2.34694080
     6.25289448    -2.33098707    -2.34342491
     5.99959366    -2.18694199    -2.19739128
     5.50922342    -2.02768389    -1.99663895
     6.02434517    -2.36094852    -2.32650878
     6.74284881    -2.63520146    -2.59653877
     7.14960653    -2.76848493    -2.73661781
     7.24856678    -2.76138853    -2.73172076
     7.00798134    -2.62087536    -2.59155113
     6.39206378    -2.38282460    -2.33577180
     0.00000000     0.00000000     0.00000000
     0.00000000     0.00000000     0.00000000
     0.00000000     0.00000000     0.00000000
     0.00000000     0.00000000     0.00000000
     0.00000000     0.00000000     0.00000000
     0.00000000     0.00000000     0.00000000
     1.46131599    -0.90663047    -0.58072587
     2.10037683    -1.10847799    -0.71525933
     2.27191925    -1.12623153    -0.62774367
     2.20139012    -1.07614911    -0.56206657
     1.88721686    -1.12347941    -0.50283331
     1.29424314    -0.77191566    -0.25647394
     2.50443383    -1.63424838    -1.26036134
     3.26755036    -1.93702495    -1.50942849
     3.52546808    -1.92918022    -1.54580708
     3.50667666    -1.85163442    -1.43032028
     3.28818736    -1.72945232    -1.19099455
     2.58998555    -1.25004086    -0.79776817
     3.50665008    -2.26700873    -1.86913541
     4.29513591    -2.62637419    -2.21210184
     4.67844472    -2.69123528    -2.29590626
     4.74589528    -2.57021826    -2.19067009
     4.48028891    -2.31387895    -1.90127580
     3.78476137    -1.76979153    -1.42218691
     4.40265773    -2.83088348    -2.42866099
     5.19764511    -3.22228944    -2.80823394
     5.63585041    -3.33327507    -2.97282602
     5.73817228    -3.22427744    -2.88567057
     5.49215256    -2.89492534    -2.58138028
     4.80734461    -2.33353749    -2.08182477
     5.20695269    -3.32578997    -2.92326278
     5.96503368    -3.72928006    -3.32598367
     6.40995037    -3.88498493    -3.51951758
     6.53027837    -3.79513243    -3.49102387
     6.29863347    -3.47035303    -3.21914118
     5.67168320    -2.89893431    -2.69618513
     0.00000000     0.00000000     0.00000000
     0.00000000     0.00000000     0.00000000
     0.00000000     0.00000000     0.00000000
     0.00000000     0.00000000     0.00000000
     0.00000000     0.00000000     0.00000000
     0.00000000     0.00000000     0.00000000
     0.56354051    -0.73990923    -0.97044829
     0.41458475    -0.65562578    -1.17677739
     0.37010521    -0.67535102    -1.28052686
     0.58462267    -0.79121214    -1.26634897
     1.02076381    -0.69692629    -1.22136561
     1.00157285    -0.75519136    -1.08100828
     1.44181139    -1.68771718    -1.81383357
     1.52857177    -1.82610038    -2.16638066
     1.69173888    -1.99766307    -2.33199074
     1.93800466    -2.07354379    -2.38324944
     2.06411974    -1.98228757    -2.25494290
     2.07173840    -1.89096940    -1.98945716
     2.19116054    -2.57124473    -2.58792175
     2.49835399    -2.92844250    -3.01901021
     2.75615374    -3.18315950    -3.28632193
     2.96909745    -3.30664777    -3.33489357
     3.07345392    -3.21135122    -3.15591631
     2.96443577    -3.00917695    -2.81917787
     2.88711702    -3.39726150    -3.25830566
     3.32543992    -3.91162472    -3.74875114
     3.66758170    -4.29053831    -4.03786354
     3.88617352    -4.43693264    -4.11320930
     3.90452592    -4.33531048    -3.91746865
     3.74322386    -3.99759647    -3.51069315
     3.50808049    -4.14373257    -3.83534170
     4.02886691    -4.77430114    -4.32901195
     4.39336615    -5.19843801    -4.62478921
     4.59958855    -5.38982703    -4.69794380
     4.61455519    -5.28424640    -4.52796830
     4.32802865    -4.81971286    -4.08837100
     0.00000000     0.00000000     0.00000000
     0.00000000     0.00000000     0.00000000
     0.00000000     0.00000000     0.00000000
     0.00000000     0.00000000     0.00000000
     0.00000000     0.00000000     0.00000000
     0.00000000     0.00000000     0.00000000
     0.70383478    -1.19213806    -0.54706338
     1.21752062    -2.03172905    -1.00240812
     1.41625817    -2.47500110    -1.18876478
     1.29805184    -2.40924366    -1.19117931
     0.82694004    -2.09444384    -0.94082771
     1.05085267    -2.48535951    -1.21311133
     1.13428656    -2.36849314    -1.26426785
     1.73039774    -3.43672717    -1.87392206
     1.99460237    -4.04496892    -2.25909669
     1.86868110    -4.09053051    -2.21434124
     1.57469001    -3.86401924    -1.94885757
     1.54961664    -4.22847527    -2.07951919
     1.63075391    -3.60303469    -1.94681700
     2.17793260    -4.69640027    -2.57364024
     2.47831096    -5.40961330    -2.94417575
     2.44709660    -5.59553244    -2.98597449
     2.14234065    -5.46782822    -2.76510662
     1.99957812    -5.59564540    -2.67620991
     2.08105029    -4.77738018    -2.56361602
     2.55828605    -5.81606160    -3.10760013
     2.83772919    -6.53508303    -3.47374972
     2.84357499    -6.83459421    -3.53997318
     2.64084868    -6.80142988    -3.37695993
     2.37229435    -6.65561204    -3.15850477
     2.49258703    -5.84977243    -3.07898686
     2.87231648    -6.79851263    -3.53630599
     3.10205594    -7.46744686    -3.82841660
     3.15172352    -7.82510888    -3.93881222
     3.00901143    -7.84077104    -3.83642879
     2.71998602    -7.46515944    -3.53570921
     0.00000000     0.00000000     0.00000000
     0.00000000     0.00000000     0.00000000
     0.00000000     0.00000000     0.00000000
     0.00000000     0.00000000     0.00000000
     0.00000000     0.00000000     0.00000000
     0.00000000     0.00000000     0.00000000
     0.09798265    -1.45020613    -0.60431678
     0.21989345    -1.64831997    -0.74795018
     0.28486546    -1.60568419    -0.92186975
     0.23475518    -1.68683107    -0.88780221
     0.15936803    -1.39330041    -0.60482715
    -0.16449555    -1.38557998    -0.23863282
     0.67513882    -3.11936451    -1.36614968
     0.90500477    -3.63842018    -1.65540204
     1.00595918    -3.82759387    -1.76259073
     0.91583876    -3.71261435    -1.69081929
     0.66735301    -3.25325996    -1.32248230
     0.37323250    -2.82844670    -0.86809377
     1.16458244    -4.60202437    -2.09616944
     1.44241638    -5.30416747    -2.43024339
     1.52309972    -5.55647804    -2.55807451
     1.42738953    -5.41876160    -2.43518784
     1.22684200    -4.85900650    -2.07126031
     0.85334665    -4.16364932    -1.62453637
     1.61003312    -5.89824489    -2.72518103
     1.87373161    -6.65229500    -3.07769757
     1.96497904    -6.98879666    -3.19556545
     1.89557000    -6.83981689    -3.09595624
     1.67383853    -6.24654884    -2.77483119
     1.29155777    -5.38014693    -2.28903344
     1.97235817    -6.96739435    -3.24269763
     2.22639269    -7.73552594    -3.57816617
     2.31342728    -8.06271518    -3.70246472
     2.25407738    -7.96044407    -3.61796362
     2.04538335    -7.41326563    -3.34050125
     1.66183341    -6.45618363    -2.85806553
     0.00000000     0.00000000     0.00000000
     0.00000000     0.00000000     0.00000000
     0.00000000     0.00000000     0.00000000
     0.00000000     0.00000000     0.00000000
     0.00000000     0.00000000     0.00000000
     0.00000000     0.00000000     0.00000000
     0.95726526    -1.65000443    -1.02803126
     1.00304348    -2.24955194    -1.29136931
     1.06612090    -2.55141153    -1.25388709
     1.14045911    -2.42268243    -1.21242657
     1.05913014    -2.06184678    -1.09768433
     1.23342704    -1.55028676    -1.33058509
     1.39564925    -3.10050466    -1.70598648
     1.50409340    -3.87764875    -2.04069799
     1.56728969    -4.31321383    -2.17794885
     1.64358088    -4.22447617    -2.09311455
     1.69480087    -3.73360815    -2.00215493
     1.75721888    -3.10535513    -2.06629613
     1.81358600    -4.50367910    -2.26293499
     1.97139901    -5.36226685    -2.64095787
     2.10821176    -5.86002859    -2.82180638
     2.18729557    -5.81669566    -2.81771130
     2.15922422    -5.31482144    -2.68414868
     2.20707016    -4.58472971    -2.57169123
     2.15365956    -5.76983033    -2.73322113
     2.36746429    -6.63943455    -3.09444018
     2.52233455    -7.13426559    -3.32165086
     2.59028122    -7.13963475    -3.33699025
     2.57868881    -6.69114420    -3.19737243
     2.54546640    -5.88541448    -2.99326482
     2.45036962    -6.87549639    -3.11226929
     2.67907611    -7.71208234    -3.46062618
     2.83364814    -8.16012338    -3.66150418
     2.90235683    -8.20457067    -3.71491154
     2.88987729    -7.82582256    -3.60141939
     2.80766669    -6.98067423    -3.34275167
     0.00000000     0.00000000     0.00000000
     0.00000000     0.00000000     0.00000000
     0.00000000     0.00000000     0.00000000
     0.00000000     0.00000000     0.00000000
     0.00000000     0.00000000     0.00000000
     0.00000000     0.00000000     0.00000000
    -0.11085982    -1.19234853    -0.10001807
     0.15560413    -1.76900820    -0.29402107
     0.39454408    -1.95011262    -0.57978855
     0.43802935    -1.96417204    -0.60620249
     0.37295966    -2.08007903    -0.57583605
    -0.08067115    -2.45402112    -0.19702743
     0.24723326    -2.90879740    -0.61995365
     0.65643423    -3.85305618    -1.02324278
     0.95023271    -4.26913759    -1.22250233
     1.03356602    -4.32289141    -1.30296228
     0.79774014    -4.21225401    -1.10218693
     0.45861929    -4.33985094    -0.69917621
     0.56184655    -4.49249674    -1.17615391
     0.99678605    -5.56846508    -1.59268545
     1.27355310    -6.08976807    -1.82637735
     1.33726134    -6.19650036    -1.83250083
     1.21932090    -6.04467667    -1.63239329
     0.84834695    -5.81863915    -1.23675172
     0.86848612    -5.95990139    -1.68303937
     1.24700595    -7.01368217    -2.09126423
     1.48972011    -7.61366199    -2.27983134
     1.58400847    -7.78872270    -2.30644583
     1.48832577    -7.55675969    -2.11813337
     1.20625819    -7.08246105    -1.72653623
     1.12542726    -7.22107755    -2.13301722
     1.44267756    -8.25500112    -2.48052223
     1.64031252    -8.85599354    -2.66008122
     1.72783350    -9.04654998    -2.66835724
     1.68272238    -8.80910028    -2.51634555
     1.46386177    -8.12989227    -2.16167304
     0.00000000     0.00000000     0.00000000
     0.00000000     0.00000000     0.00000000
     0.00000000     0.00000000     0.00000000
     0.00000000     0.00000000     0.00000000
     0.00000000     0.00000000     0.00000000
     0.00000000     0.00000000     0.00000000
     0.37841836    -2.08725854    -0.65679865
     0.36282924    -2.80722557    -0.73245928
     0.40195580    -2.94677945    -0.66262602
     0.44947539    -2.97413619    -0.71503486
     0.52376694    -2.63418596    -0.71400881
     0.97947136    -1.55654165    -0.70787945
     0.43056718    -3.69997014    -0.98976911
     0.47674785    -4.63133016    -1.12406000
     0.58578455    -4.99925609    -1.19932735
     0.72894371    -5.02341141    -1.20545182
     0.96897338    -4.66637857    -1.26555030
     1.12349417    -3.27611614    -1.15734114
     0.49731505    -5.25543562    -1.30127666
     0.56590151    -6.33873434    -1.44734267
     0.72618851    -6.90731584    -1.53683792
     0.92138697    -6.98575316    -1.59665501
     1.08470515    -6.46483115    -1.60831431
     1.24109563    -5.07645310    -1.48282398
     0.53975966    -6.66047730    -1.53349835
     0.63489969    -7.82277849    -1.67607318
     0.80274284    -8.49092081    -1.79010442
     0.96050679    -8.55370528    -1.82430152
     1.11020747    -8.01660931    -1.81575012
     1.21418513    -6.71538929    -1.71321707
     0.58778395    -7.89615499    -1.70430497
     0.68073897    -9.05308864    -1.83994258
     0.80598074    -9.70058536    -1.92519097
     0.93262924    -9.79027383    -1.96891320
     1.04063244    -9.28308728    -1.95261898
     1.15283354    -8.11699264    -1.86328836
     0.00000000     0.00000000     0.00000000
     0.00000000     0.00000000     0.00000000
     0.00000000     0.00000000     0.00000000
     0.00000000     0.00000000     0.00000000
     0.00000000     0.00000000     0.00000000
     0.00000000     0.00000000     0.00000000
    -0.46431670    -1.45636945    -0.06151604
    -0.22308738    -2.20418313    -0.20405522
    -0.12597717    -2.74837992    -0.28210301
     0.00090245    -3.05616869    -0.11693651
     0.16251345    -3.31971652    -0.18802271
    -0.48974267    -2.67133740     0.01149961
    -0.62547849    -3.52322888    -0.15288730
    -0.46885056    -4.77320502    -0.21814179
    -0.32344758    -5.61409411    -0.19871619
    -0.19748810    -6.08124756    -0.17721628
    -0.26612992    -5.95189493    -0.08000626
    -0.50630826    -5.08052948     0.03200060
    -0.73926469    -5.39811958    -0.14138724
    -0.58436562    -6.86795250    -0.20061791
    -0.45385616    -7.83921601    -0.18120864
    -0.37062821    -8.26100311    -0.09887120
    -0.36699139    -8.04529731    -0.00583009
    -0.60300372    -7.03585207     0.07929575
    -0.78315692    -7.10920083    -0.11975126
    -0.64982625    -8.61751736    -0.14643731
    -0.55587440    -9.57190354    -0.09525539
    -0.46512283    -9.98620616    -0.03144731
    -0.45944861    -9.66728964     0.05369434
    -0.56392200    -8.66824233     0.13132443
    -0.77890968    -8.57475128    -0.06959574
    -0.68106840   -10.03238448    -0.04809314
    -0.59293788   -10.90177065     0.00201741
    -0.53187191   -11.21192154     0.06759866
    -0.49453420   -10.93209715     0.12123083
    -0.53660920    -9.96376381     0.15249716
     0.00000000     0.00000000     0.00000000
     0.00000000     0.00000000     0.00000000
     0.00000000     0.00000000     0.00000000
     0.00000000     0.00000000     0.00000000
     0.00000000     0.00000000     0.00000000
     0.00000000     0.00000000     0.00000000
    -0.05688005    -3.27858415     0.40238834
    -0.24984695    -3.44679085     0.59408521
    -0.16686719    -3.83489876     0.59585042
    -0.11681203    -3.42966935     0.47633693
    -0.18586091    -2.54924446     0.58274728
     0.66796704    -0.77842838     0.50556327
    -0.15456722    -5.67196237     0.57724359
    -0.16206697    -6.08266671     0.64099616
    -0.01376580    -6.41807719     0.66165230
     0.17438839    -5.90250705     0.68318781
     0.34600023    -4.53432386     0.69714500
     0.74198296    -2.55911680     0.67346413
    -0.18882380    -7.77575890     0.65017301
    -0.17545303    -8.47566699     0.76042354
     0.01746755    -8.83693641     0.77468056
     0.25767569    -8.22089509     0.76194744
     0.48125798    -6.68601538     0.73488975
     0.84026877    -4.62863511     0.71503099
    -0.19068520    -9.54908877     0.76640130
    -0.15269440   -10.47974981     0.86462968
     0.04085732   -10.80466164     0.89300006
     0.26368638   -10.20513033     0.86113032
     0.49458435    -8.75525354     0.79072781
     0.75569882    -6.71373634     0.74641888
    -0.15844132   -11.01672299     0.86147000
    -0.09329336   -12.01754305     0.99727354
     0.05117919   -12.28614535     1.02660896
     0.23359400   -11.81458287     0.98298433
     0.41976598   -10.59834178     0.89183944
     0.66068348    -8.60421907     0.79374822
     0.00000000     0.00000000     0.00000000
     0.00000000     0.00000000     0.00000000
     0.00000000     0.00000000     0.00000000
     0.00000000     0.00000000     0.00000000
     0.00000000     0.00000000     0.00000000
     0.00000000     0.00000000     0.00000000
    -0.48797101    -2.55061439     0.01556091
    -0.50770629    -2.86964733    -0.01157184
    -0.65134917    -3.54230012     0.04791997
    -0.67114380    -3.91421656     0.04623639
    -0.41936023    -3.62830864    -0.22269209
    -0.43009418    -4.59505437    -0.17867172
    -0.82272662    -5.27466982     0.35326481
    -1.05104459    -6.19153041     0.35139088
    -1.24124687    -7.23387947     0.50104537
    -1.25558851    -7.63677963     0.48096384
    -0.95787934    -7.33902740     0.28862845
    -0.74219281    -7.70263251     0.24998790
    -1.15307221    -7.54630757     0.87027733
    -1.43118925    -8.93687491     0.95293678
    -1.67789304   -10.13463085     1.19903882
    -1.68175035   -10.64652059     1.25765820
    -1.42654745   -10.33817879     1.07854338
    -1.18197769   -10.09378436     0.93778051
    -1.46821117    -9.48107924     1.41044756
    -1.77184648   -11.15359943     1.67716543
    -1.98775612   -12.39951040     1.97148487
    -2.00293049   -12.93322865     2.07601978